 Gaussian 16, Revision A.03,
 Gaussian 16:  ES64L-G16RevA.03 25-Dec-2016

 ------------------------
 #p MP2(full) SDDAll freq
 ------------------------

 file 'w1s1.log' Now we use Def2-QZVPPD, but it was opt at: ---' #p ZOR
 A-SR+SO PBE QZ4P'---
 ----------------------------------------------------------------------
 Symbolic Z-matrix:
 Charge =  2 Multiplicity = 1

                         Standard orientation:
 ---------------------------------------------------------------------
 Center     Atomic      Atomic             Coordinates (Angstroms)
 Number     Number       Type             X           Y           Z
 ---------------------------------------------------------------------
      1         80           0        0.238654    0.000008    0.001307
      2          8           0       -1.809213   -0.000457   -0.066567
      3          1           0       -2.309238    0.800430    0.213453
      4          1           0       -2.309404   -0.797441    0.214559
 ---------------------------------------------------------------------

 SCF Done:  E(RHF) =  -168.628368587     A.U. after   13 cycles
 E2 =    -0.2233787604D+00 EUMP2 =    -0.16885174734787D+03
 E2 =    -0.2233787604D+00 EUMP2 =    -0.16885174734787D+03

 The electronic state is 1-A.
 Alpha  occ. eigenvalues --   -5.64048  -3.63932  -3.63631  -3.63539  -1.86986
 Alpha  occ. eigenvalues --   -1.24882  -1.24311  -1.21100  -1.20142  -1.20141
 Alpha  occ. eigenvalues --   -1.17959  -1.07467  -1.01490
 Alpha virt. eigenvalues --   -0.51663  -0.33330  -0.32588  -0.28622  -0.21878
 Alpha virt. eigenvalues --   -0.17286  -0.16738  -0.15281  -0.14752  -0.13524
 Alpha virt. eigenvalues --   -0.12483  -0.11419  -0.09212  -0.08766  -0.06896

 Mulliken charges:
               1
     1  Hg   1.725557
     2  O   -0.918254
     3  H    0.596546
     4  H    0.596152
 Sum of Mulliken charges =   2.00000

 Dipole moment (field-independent basis, Debye):
    X=             -2.6461    Y=              0.0098    Z=              1.4003  Tot=              2.9937
 Quadrupole moment (field-independent basis, Debye-Ang):
   XX=             -5.4509   YY=            -18.9092   ZZ=            -22.8068
   XY=             -0.0214   XZ=             -3.3879   YZ=             -0.0011

  Exact polarizability:  20.461  -0.013  13.320   0.393   0.003  11.413
 Approx polarizability:  11.521  -0.008   9.754  -0.092   0.002   7.534

                      1                      2                      3
                      A                      A                      A
 Frequencies --    540.6193               672.7271               783.8093
 Red. masses --      6.2215                 1.2073                 1.0932
 Frc consts  --      1.0713                 0.3219                 0.3957
 IR Inten    --     52.5586               375.1298                64.4204

                      4                      5                      6
                      A                      A                      A
 Frequencies --   1725.6588              3563.1071              3667.4565
 Red. masses --      1.0829                 1.0422                 1.0856
 Frc consts  --      1.9000                 7.7961                 8.6029
 IR Inten    --    110.6105               411.6834               436.8863

 - Thermochemistry -
 -------------------
 Temperature   298.150 Kelvin.  Pressure   1.00000 Atm.
 Atom     1 has atomic number 80 and mass 201.97060

 Molecular mass:   219.98116 amu.
 Principal axes and moments of inertia in atomic units:
                           1         2         3
     Eigenvalues --     5.12596 263.54827 267.61133
           X            0.99990  -0.00010  -0.01385
           Y            0.00010   1.00000  -0.00012
           Z            0.01385   0.00012   0.99990
 This molecule is an asymmetric top.
 Rotational symmetry number  1.
 Rotational temperatures (Kelvin)     16.89713     0.32865     0.32366
 Rotational constants (GHZ):         352.07899     6.84786     6.74389
 Zero-point vibrational energy      65515.8 (Joules/Mol)
                                   15.65864 (Kcal/Mol)
 Warning -- explicit consideration of   1 degrees of freedom as
           vibrations may cause significant error
 Vibrational temperatures:    777.83   967.90  1127.73  2482.84  5126.52
          (Kelvin)           5276.65

 Zero-point correction=                           0.024954 (Hartree/Particle)
 Thermal correction to Energy=                    0.028191
 Thermal correction to Enthalpy=                  0.029135
 Thermal correction to Gibbs Free Energy=        -0.001138
 Sum of electronic and zero-point Energies=           -168.826794
 Sum of electronic and thermal Energies=              -168.823556
 Sum of electronic and thermal Enthalpies=            -168.822612
 Sum of electronic and thermal Free Energies=         -168.852886

                     E (Thermal)             CV                S
                      KCal/Mol        Cal/Mol-Kelvin    Cal/Mol-Kelvin
 Total                   17.690              8.715             63.717
 Electronic               0.000              0.000              0.000
 Translational            0.889              2.981             42.068
 Rotational               0.889              2.981             20.519
 Vibrational             15.913              2.754              1.129
 Vibration     1          0.896              1.160              0.564

 Normal termination of Gaussian 16 at Wed May 11 21:22:41 2022.
