 Gaussian 16, Revision A.03,
 Gaussian 16:  ES64L-G16RevA.03 25-Dec-2016

 ------------------------
 #p MP2(full) SDDAll freq
 ------------------------

 file 'w2s1.log' Now we use Def2-QZVPPD, but it was opt at: ---' #p ZOR
 A-SR+SO PBE QZ4P'---
 ----------------------------------------------------------------------
 Symbolic Z-matrix:
 Charge =  2 Multiplicity = 1

                         Standard orientation:
 ---------------------------------------------------------------------
 Center     Atomic      Atomic             Coordinates (Angstroms)
 Number     Number       Type             X           Y           Z
 ---------------------------------------------------------------------
      1         80           0        0.000002    0.007699   -0.000004
      2          8           0       -2.057115   -0.074258   -0.052393
      3          1           0       -2.548937    0.709008   -0.396623
      4          1           0       -2.530587   -0.423416    0.739913
      5          8           0        2.057090   -0.073523    0.052996
      6          1           0        2.549127    0.714140    0.386718
      7          1           0        2.530466   -0.433441   -0.734537
 ---------------------------------------------------------------------

 SCF Done:  E(RHF) =  -185.642912519     A.U. after   13 cycles
 E2 =    -0.3733947327D+00 EUMP2 =    -0.18601630725210D+03
 E2 =    -0.3733947327D+00 EUMP2 =    -0.18601630725210D+03

 The electronic state is 1-A.
 Alpha  occ. eigenvalues --   -5.56617  -3.56375  -3.55800  -3.55796  -1.83710
 Alpha  occ. eigenvalues --   -1.83025  -1.21088  -1.19744  -1.19670  -1.12757
 Alpha  occ. eigenvalues --   -1.12549  -1.12424  -1.12335  -1.06860  -1.01007
 Alpha  occ. eigenvalues --   -0.98070  -0.96879
 Alpha virt. eigenvalues --   -0.38226  -0.28591  -0.28406  -0.24488  -0.20845
 Alpha virt. eigenvalues --   -0.15270  -0.14150  -0.13731  -0.12626  -0.12040
 Alpha virt. eigenvalues --   -0.10515  -0.10215  -0.09842  -0.07354  -0.05318

 Mulliken charges:
               1
     1  Hg   1.472221
     2  O   -0.909078
     3  H    0.585714
     4  H    0.587288
     5  O   -0.909192
     6  H    0.585738
     7  H    0.587309
 Sum of Mulliken charges =   2.00000

 Dipole moment (field-independent basis, Debye):
    X=              0.0003    Y=              2.0513    Z=             -0.0138  Tot=              2.0513
 Quadrupole moment (field-independent basis, Debye-Ang):
   XX=              5.5747   YY=            -26.7458   ZZ=            -26.6816
   XY=             -0.0402   XZ=             -5.8009   YZ=              0.0002

  Exact polarizability:  34.495  -0.001  19.609  -0.167  -0.000  19.533
 Approx polarizability:  19.291  -0.002  14.645  -0.339  -0.000  14.569

 ******    1 imaginary frequencies (negative Signs) ******

                      1                      2                      3
                      A                      A                      A
 Frequencies --   -195.7369                73.2112                80.9527
 Red. masses --      1.0230                 3.9768                 4.6415
 Frc consts  --      0.0231                 0.0126                 0.0179
 IR Inten    --     49.9229                35.8634                24.1062

                      4                      5                      6
                      A                      A                      A
 Frequencies --    484.9160               557.1693               725.5374
 Red. masses --      7.1073                 7.9874                 1.1570
 Frc consts  --      0.9847                 1.4609                 0.3589
 IR Inten    --     11.3588                41.3159               307.1540

                      7                      8                      9
                      A                      A                      A
 Frequencies --    727.5939               830.7363               837.1391
 Red. masses --      1.1701                 1.0974                 1.1164
 Frc consts  --      0.3650                 0.4462                 0.4610
 IR Inten    --    422.6559                49.7966                65.5737

                     10                     11                     12
                      A                      A                      A
 Frequencies --   1743.1687              1745.7320              3522.5724
 Red. masses --      1.0844                 1.0833                 1.0403
 Frc consts  --      1.9414                 1.9451                 7.6054
 IR Inten    --    228.0264                38.1214               648.0011

                     13                     14                     15
                      A                      A                      A
 Frequencies --   3532.3766              3626.0722              3626.3483
 Red. masses --      1.0405                 1.0857                 1.0873
 Frc consts  --      7.6497                 8.4107                 8.4247
 IR Inten    --     16.4778               370.5822               378.6636

 - Thermochemistry -
 -------------------
 Temperature   298.150 Kelvin.  Pressure   1.00000 Atm.
 Atom     1 has atomic number 80 and mass 201.97060

 Molecular mass:   237.99173 amu.
 Principal axes and moments of inertia in atomic units:
                           1         2         3
     Eigenvalues --    10.89944 581.61296 581.97690
           X            0.99994  -0.00006  -0.01075
           Y            0.00008   1.00000   0.00171
           Z            0.01075  -0.00171   0.99994
 This molecule is an asymmetric top.
 Rotational symmetry number  1.
 Rotational temperatures (Kelvin)      7.94664     0.14892     0.14883
 Rotational constants (GHZ):         165.58111     3.10299     3.10105
    1 imaginary frequencies ignored.
 Zero-point vibrational energy     132268.3 (Joules/Mol)
                                   31.61287 (Kcal/Mol)
 Warning -- explicit consideration of   4 degrees of freedom as
           vibrations may cause significant error
 Vibrational temperatures:    105.33   116.47   697.69   801.64  1043.89
          (Kelvin)           1046.85  1195.24  1204.46  2508.03  2511.72
                             5068.20  5082.30  5217.11  5217.51

 Zero-point correction=                           0.050378 (Hartree/Particle)
 Thermal correction to Energy=                    0.055537
 Thermal correction to Enthalpy=                  0.056481
 Thermal correction to Gibbs Free Energy=         0.020746
 Sum of electronic and zero-point Energies=           -185.965929
 Sum of electronic and thermal Energies=              -185.960770
 Sum of electronic and thermal Enthalpies=            -185.959826
 Sum of electronic and thermal Free Energies=         -185.995562

                     E (Thermal)             CV                S
                      KCal/Mol        Cal/Mol-Kelvin    Cal/Mol-Kelvin
 Total                   34.850             15.112             75.212
 Electronic               0.000              0.000              0.000
 Translational            0.889              2.981             42.303
 Rotational               0.889              2.981             22.827
 Vibrational             33.073              9.150             10.083
 Vibration     1          0.599              1.967              4.065
 Vibration     2          0.600              1.962              3.868
 Vibration     3          0.841              1.283              0.697
 Vibration     4          0.913              1.124              0.530

 Normal termination of Gaussian 16 at Wed May 11 21:22:55 2022.
