 Gaussian 16, Revision A.03,
 Gaussian 16:  ES64L-G16RevA.03 25-Dec-2016

 ------------------------
 #p MP2(full) SDDAll freq
 ------------------------

 file 'w3s1.log' Now we use Def2-QZVPPD, but it was opt at: ---' #p ZOR
 A-SR+SO PBE QZ4P'---
 ----------------------------------------------------------------------
 Symbolic Z-matrix:
 Charge =  2 Multiplicity = 1

                         Standard orientation:
 ---------------------------------------------------------------------
 Center     Atomic      Atomic             Coordinates (Angstroms)
 Number     Number       Type             X           Y           Z
 ---------------------------------------------------------------------
      1         80           0        0.378732    0.071990    0.000151
      2          8           0        2.324103   -0.656514   -0.001102
      3          1           0        2.878846   -0.506936    0.795351
      4          1           0        2.879237   -0.503486   -0.796793
      5          8           0       -1.525505    0.627973    0.001357
      6          1           0       -2.788238   -0.068752   -0.000062
      7          1           0       -1.582168    1.604180   -0.005411
      8          8           0       -3.697602   -0.631358   -0.001123
      9          1           0       -4.245391   -0.507201    0.804554
     10          1           0       -4.248803   -0.497822   -0.802730
 ---------------------------------------------------------------------

 SCF Done:  E(RHF) =  -202.604782127     A.U. after   13 cycles
 E2 =    -0.5178847811D+00 EUMP2 =    -0.20312266690761D+03
 E2 =    -0.5178847811D+00 EUMP2 =    -0.20312266690761D+03

 The electronic state is 1-A.
 Alpha  occ. eigenvalues --   -5.49370  -3.49000  -3.48413  -3.48403  -1.80686
 Alpha  occ. eigenvalues --   -1.79242  -1.67273  -1.15072  -1.14810  -1.13459
 Alpha  occ. eigenvalues --   -1.12618  -1.08206  -1.05593  -1.05068  -1.05065
 Alpha  occ. eigenvalues --   -0.98815  -0.96881  -0.95214  -0.92274  -0.85567
 Alpha  occ. eigenvalues --   -0.84795
 Alpha virt. eigenvalues --   -0.31010  -0.23626  -0.23390  -0.20266  -0.17847
 Alpha virt. eigenvalues --   -0.14748  -0.11123  -0.10797  -0.09750  -0.09309
 Alpha virt. eigenvalues --   -0.08373  -0.07484  -0.06789  -0.04752  -0.04589

 Mulliken charges:
               1
     1  Hg   1.392795
     2  O   -0.916037
     3  H    0.573376
     4  H    0.573414
     5  O   -1.104953
     6  H    0.658184
     7  H    0.524289
     8  O   -0.823835
     9  H    0.561433
    10  H    0.561334
 Sum of Mulliken charges =   2.00000

 Dipole moment (field-independent basis, Debye):
    X=             -4.6322    Y=              0.8579    Z=             -0.0061  Tot=              4.7110
 Quadrupole moment (field-independent basis, Debye-Ang):
   XX=             46.5620   YY=            -34.7349   ZZ=            -30.9539
   XY=             -0.5951   XZ=             -0.0023   YZ=             -0.0682

  Exact polarizability:  52.937  -2.048  26.806  -0.012  -0.026  27.790
 Approx polarizability:  28.723  -0.350  19.160  -0.004  -0.033  20.633

 ******    3 imaginary frequencies (negative Signs) ******

                      1                      2                      3
                      A                      A                      A
 Frequencies --   -259.4404              -138.9751               -32.7636
 Red. masses --      1.0364                 1.0570                 2.4489
 Frc consts  --      0.0411                 0.0120                 0.0015
 IR Inten    --     42.1893               119.0073                22.9063

                      4                      5                      6
                      A                      A                      A
 Frequencies --     56.2344               125.3203               275.9106
 Red. masses --      5.0964                 6.0911                 1.2546
 Frc consts  --      0.0095                 0.0564                 0.0563
 IR Inten    --     27.3305                20.4025               105.9982

                      7                      8                      9
                      A                      A                      A
 Frequencies --    331.9450               389.5617               498.2868
 Red. masses --      4.2818                 1.2329                 7.5482
 Frc consts  --      0.2780                 0.1102                 1.1042
 IR Inten    --    162.7637                58.4239                21.5502

                     10                     11                     12
                      A                      A                      A
 Frequencies --    652.9796               703.8596               717.8366
 Red. masses --      5.4950                 1.1882                 1.2398
 Frc consts  --      1.3804                 0.3468                 0.3764
 IR Inten    --    178.3716               236.5311               381.4100

                     13                     14                     15
                      A                      A                      A
 Frequencies --    790.3769              1082.8609              1385.8317
 Red. masses --      1.1147                 1.1079                 1.0805
 Frc consts  --      0.4103                 0.7654                 1.2226
 IR Inten    --     42.8566               123.0722               296.9168

                     16                     17                     18
                      A                      A                      A
 Frequencies --   1749.0607              1769.5330              1785.3712
 Red. masses --      1.0852                 1.0374                 1.0608
 Frc consts  --      1.9560                 1.9139                 1.9922
 IR Inten    --    143.8224                 6.8884               142.8349

                     19                     20                     21
                      A                      A                      A
 Frequencies --   2149.8036              3590.8412              3602.9611
 Red. masses --      1.1108                 1.0405                 1.0407
 Frc consts  --      3.0248                 7.9050                 7.9600
 IR Inten    --   3845.5472               337.5847               166.1280

                     22                     23                     24
                      A                      A                      A
 Frequencies --   3685.3869              3691.0799              3692.6041
 Red. masses --      1.0665                 1.0860                 1.0849
 Frc consts  --      8.5344                 8.7176                 8.7154
 IR Inten    --    157.6367               230.5206               424.2577

 - Thermochemistry -
 -------------------
 Temperature   298.150 Kelvin.  Pressure   1.00000 Atm.
 Atom     1 has atomic number 80 and mass 201.97060

 Molecular mass:   256.00229 amu.
 Principal axes and moments of inertia in atomic units:
                           1         2         3
     Eigenvalues --    95.594701554.222661631.39600
           X            0.99999  -0.00443  -0.00000
           Y            0.00443   0.99999  -0.00089
           Z            0.00001   0.00089   1.00000
 This molecule is an asymmetric top.
 Rotational symmetry number  1.
 Rotational temperatures (Kelvin)      0.90605     0.05573     0.05309
 Rotational constants (GHZ):          18.87909     1.16119     1.10626
    3 imaginary frequencies ignored.
 Zero-point vibrational energy     195754.8 (Joules/Mol)
                                   46.78652 (Kcal/Mol)
 Warning -- explicit consideration of   6 degrees of freedom as
           vibrations may cause significant error
 Vibrational temperatures:     80.91   180.31   396.97   477.59   560.49
          (Kelvin)            716.92   939.49  1012.70  1032.81  1137.18
                             1558.00  1993.90  2516.51  2545.96  2568.75
                             3093.09  5166.42  5183.86  5302.45  5310.64
                             5312.83

 Zero-point correction=                           0.074559 (Hartree/Particle)
 Thermal correction to Energy=                    0.080749
 Thermal correction to Enthalpy=                  0.081694
 Thermal correction to Gibbs Free Energy=         0.042330
 Sum of electronic and zero-point Energies=           -203.048108
 Sum of electronic and thermal Energies=              -203.041918
 Sum of electronic and thermal Enthalpies=            -203.040973
 Sum of electronic and thermal Free Energies=         -203.080337

                     E (Thermal)             CV                S
                      KCal/Mol        Cal/Mol-Kelvin    Cal/Mol-Kelvin
 Total                   50.671             19.645             82.848
 Electronic               0.000              0.000              0.000
 Translational            0.889              2.981             42.520
 Rotational               0.889              2.981             26.985
 Vibrational             48.894             13.683             13.343
 Vibration     1          0.596              1.975              4.585
 Vibration     2          0.610              1.928              3.017
 Vibration     3          0.678              1.718              1.559
 Vibration     4          0.714              1.612              1.251
 Vibration     5          0.757              1.492              1.002
 Vibration     6          0.854              1.254              0.662

 Normal termination of Gaussian 16 at Wed May 11 21:23:19 2022.
