 Gaussian 16, Revision A.03,
 Gaussian 16:  ES64L-G16RevA.03 25-Dec-2016

 ------------------------
 #p MP2(full) SDDAll freq
 ------------------------

 file 'w3s2.log' Now we use Def2-QZVPPD, but it was opt at: ---' #p ZOR
 A-SR+SO PBE QZ4P'---
 ----------------------------------------------------------------------
 Symbolic Z-matrix:
 Charge =  2 Multiplicity = 1

                         Standard orientation:
 ---------------------------------------------------------------------
 Center     Atomic      Atomic             Coordinates (Angstroms)
 Number     Number       Type             X           Y           Z
 ---------------------------------------------------------------------
      1         80           0        0.107206   -0.095023    0.003502
      2          8           0       -1.744624   -1.201302    0.069061
      3          1           0       -1.754099   -2.154990   -0.162489
      4          1           0       -2.514563   -0.775891   -0.365878
      5          8           0        2.218464    0.176805   -0.074970
      6          1           0        2.779914   -0.626457   -0.145536
      7          1           0        2.634224    0.772405    0.586300
      8          8           0       -1.340613    1.742160   -0.031680
      9          1           0       -1.214161    2.450367   -0.695749
     10          1           0       -1.573592    2.195071    0.803920
 ---------------------------------------------------------------------

 SCF Done:  E(RHF) =  -202.610222383     A.U. after   13 cycles
 E2 =    -0.5077009260D+00 EUMP2 =    -0.20311792330910D+03
 E2 =    -0.5077009260D+00 EUMP2 =    -0.20311792330910D+03

 The electronic state is 1-A.
 Alpha  occ. eigenvalues --   -5.51128  -3.50816  -3.50647  -3.50519  -1.79545
 Alpha  occ. eigenvalues --   -1.77274  -1.74378  -1.15536  -1.14673  -1.12840
 Alpha  occ. eigenvalues --   -1.10032  -1.09280  -1.08443  -1.07777  -1.06744
 Alpha  occ. eigenvalues --   -1.01409  -0.99365  -0.94387  -0.93673  -0.91362
 Alpha  occ. eigenvalues --   -0.88740
 Alpha virt. eigenvalues --   -0.34874  -0.25601  -0.23525  -0.21258  -0.19600
 Alpha virt. eigenvalues --   -0.14070  -0.12509  -0.11619  -0.10890  -0.09950
 Alpha virt. eigenvalues --   -0.08786  -0.07976  -0.07560  -0.05627  -0.04829

 Mulliken charges:
               1
     1  Hg   1.425547
     2  O   -0.915072
     3  H    0.561582
     4  H    0.561077
     5  O   -0.906093
     6  H    0.568639
     7  H    0.566181
     8  O   -0.943355
     9  H    0.539651
    10  H    0.541844
 Sum of Mulliken charges =   2.00000

 Dipole moment (field-independent basis, Debye):
    X=              0.6909    Y=              0.6877    Z=              0.2385  Tot=              1.0036
 Quadrupole moment (field-independent basis, Debye-Ang):
   XX=             -5.0789   YY=            -12.7219   ZZ=            -33.4697
   XY=             -1.0561   XZ=              6.2078   YZ=              4.1280

  Exact polarizability:  39.497  -0.153  32.744  -0.044   0.456  24.209
 Approx polarizability:  21.912  -0.702  21.462   0.073   0.582  18.165

 ******    4 imaginary frequencies (negative Signs) ******

                      1                      2                      3
                      A                      A                      A
 Frequencies --   -309.1975              -273.9170              -150.2571
 Red. masses --      1.0270                 1.0337                 1.0552
 Frc consts  --      0.0578                 0.0457                 0.0140
 IR Inten    --     43.3450                47.8796                35.1431

                      4                      5                      6
                      A                      A                      A
 Frequencies --    -40.1177                54.4683                82.4469
 Red. masses --      4.5315                 4.7260                 4.8602
 Frc consts  --      0.0043                 0.0083                 0.0195
 IR Inten    --      9.7341                 1.4570                24.4730

                      7                      8                      9
                      A                      A                      A
 Frequencies --    305.5355               414.5303               470.3593
 Red. masses --      6.4936                 7.0705                 8.1862
 Frc consts  --      0.3572                 0.7158                 1.0671
 IR Inten    --     20.1423                 2.2005                37.4321

                     10                     11                     12
                      A                      A                      A
 Frequencies --    564.8551               683.9762               697.4901
 Red. masses --      1.1125                 1.1414                 1.1436
 Frc consts  --      0.2091                 0.3146                 0.3278
 IR Inten    --     26.0338               293.8469                95.7213

                     13                     14                     15
                      A                      A                      A
 Frequencies --    705.0539               724.0970               758.2207
 Red. masses --      1.1542                 1.1350                 1.1194
 Frc consts  --      0.3381                 0.3506                 0.3792
 IR Inten    --    725.5907               126.7963                91.9633

                     16                     17                     18
                      A                      A                      A
 Frequencies --   1726.6605              1738.5792              1743.5758
 Red. masses --      1.0887                 1.0848                 1.0849
 Frc consts  --      1.9124                 1.9320                 1.9432
 IR Inten    --    169.4045               102.5724               124.8724

                     19                     20                     21
                      A                      A                      A
 Frequencies --   3586.9744              3600.7788              3640.7222
 Red. masses --      1.0403                 1.0401                 1.0405
 Frc consts  --      7.8865                 7.9451                 8.1255
 IR Inten    --    338.7468               138.2808               130.1734

                     22                     23                     24
                      A                      A                      A
 Frequencies --   3687.6014              3706.4754              3741.2630
 Red. masses --      1.0861                 1.0863                 1.0846
 Frc consts  --      8.7019                 8.7929                 8.9445
 IR Inten    --    293.5495               289.5087               222.1415

 - Thermochemistry -
 -------------------
 Temperature   298.150 Kelvin.  Pressure   1.00000 Atm.
 Atom     1 has atomic number 80 and mass 201.97060

 Molecular mass:   256.00229 amu.
 Principal axes and moments of inertia in atomic units:
                           1         2         3
     Eigenvalues --   331.55340 672.78165 991.36105
           X            0.99995  -0.00146   0.01025
           Y            0.00132   0.99990   0.01387
           Z           -0.01027  -0.01386   0.99985
 This molecule is an asymmetric top.
 Rotational symmetry number  1.
 Rotational temperatures (Kelvin)      0.26124     0.12874     0.08737
 Rotational constants (GHZ):           5.44329     2.68251     1.82047
    4 imaginary frequencies ignored.
 Zero-point vibrational energy     195192.7 (Joules/Mol)
                                   46.65216 (Kcal/Mol)
 Warning -- explicit consideration of   6 degrees of freedom as
           vibrations may cause significant error
 Vibrational temperatures:     78.37   118.62   439.60   596.42   676.74
          (Kelvin)            812.70   984.09  1003.53  1014.42  1041.81
                             1090.91  2484.28  2501.43  2508.62  5160.86
                             5180.72  5238.19  5305.64  5332.79  5382.84

 Zero-point correction=                           0.074345 (Hartree/Particle)
 Thermal correction to Energy=                    0.080452
 Thermal correction to Enthalpy=                  0.081396
 Thermal correction to Gibbs Free Energy=         0.042001
 Sum of electronic and zero-point Energies=           -203.043578
 Sum of electronic and thermal Energies=              -203.037472
 Sum of electronic and thermal Enthalpies=            -203.036527
 Sum of electronic and thermal Free Energies=         -203.075922

                     E (Thermal)             CV                S
                      KCal/Mol        Cal/Mol-Kelvin    Cal/Mol-Kelvin
 Total                   50.484             19.540             82.913
 Electronic               0.000              0.000              0.000
 Translational            0.889              2.981             42.520
 Rotational               0.889              2.981             26.894
 Vibrational             48.707             13.578             13.498
 Vibration     1          0.596              1.976              4.648
 Vibration     2          0.600              1.961              3.832
 Vibration     3          0.696              1.663              1.386
 Vibration     4          0.778              1.439              0.911
 Vibration     5          0.827              1.316              0.737
 Vibration     6          0.921              1.107              0.514

 Normal termination of Gaussian 16 at Wed May 11 21:23:42 2022.
