 Gaussian 16, Revision A.03,
 Gaussian 16:  ES64L-G16RevA.03 25-Dec-2016

 ------------------------
 #p MP2(full) SDDAll freq
 ------------------------

 file 'w3s3.log' Now we use Def2-QZVPPD, but it was opt at: ---' #p ZOR
 A-SR+SO PBE QZ4P'---
 ----------------------------------------------------------------------
 Symbolic Z-matrix:
 Charge =  2 Multiplicity = 1

                         Standard orientation:
 ---------------------------------------------------------------------
 Center     Atomic      Atomic             Coordinates (Angstroms)
 Number     Number       Type             X           Y           Z
 ---------------------------------------------------------------------
      1         80           0       -0.753988   -0.070813   -0.000025
      2          8           0        1.892164    2.435161   -0.000380
      3          1           0        2.334435    2.802480    0.789725
      4          1           0        2.343558    2.799619   -0.786347
      5          8           0        1.234026    0.080764    0.000006
      6          1           0        2.022013   -1.051425    0.000522
      7          1           0        1.555492    1.163657   -0.000133
      8          8           0        2.596535   -1.987383    0.000041
      9          1           0        3.141591   -2.138095   -0.801802
     10          1           0        3.140141   -2.139510    0.802729
 ---------------------------------------------------------------------

 SCF Done:  E(RHF) =  -202.541181801     A.U. after   15 cycles
 E2 =    -0.5201965098D+00 EUMP2 =    -0.20306137831087D+03
 E2 =    -0.5201965098D+00 EUMP2 =    -0.20306137831087D+03

 The electronic state is 1-A.
 Alpha  occ. eigenvalues --   -5.51193  -3.50886  -3.50422  -3.50349  -1.79670
 Alpha  occ. eigenvalues --   -1.71750  -1.62430  -1.13976  -1.12843  -1.09975
 Alpha  occ. eigenvalues --   -1.08183  -1.07539  -1.07013  -1.07011  -1.05905
 Alpha  occ. eigenvalues --   -1.01698  -0.94591  -0.88402  -0.84114  -0.83026
 Alpha  occ. eigenvalues --   -0.82252
 Alpha virt. eigenvalues --   -0.40627  -0.24788  -0.24415  -0.20575  -0.17019
 Alpha virt. eigenvalues --   -0.15034  -0.12421  -0.11184  -0.09683  -0.09392
 Alpha virt. eigenvalues --   -0.06002  -0.05750  -0.05585  -0.04981  -0.04553

 Mulliken charges:
               1
     1  Hg   1.432016
     2  O   -0.922245
     3  H    0.530841
     4  H    0.530927
     5  O   -1.118929
     6  H    0.648729
     7  H    0.630737
     8  O   -0.850970
     9  H    0.559455
    10  H    0.559439
 Sum of Mulliken charges =   2.00000

 Dipole moment (field-independent basis, Debye):
    X=              8.1605    Y=             -0.5222    Z=              0.0128  Tot=              8.1772
 Quadrupole moment (field-independent basis, Debye-Ang):
   XX=             17.7718   YY=             -9.3204   ZZ=            -31.1932
   XY=             -2.6746   XZ=              0.0077   YZ=              0.0255

  Exact polarizability:  58.708   1.148  38.845  -0.012   0.008  29.876
 Approx polarizability:  32.105   0.464  23.325  -0.015   0.007  20.703

 ******    2 imaginary frequencies (negative Signs) ******

                      1                      2                      3
                      A                      A                      A
 Frequencies --   -235.2910              -132.0447                38.5046
 Red. masses --      1.0487                 1.1117                 5.5545
 Frc consts  --      0.0342                 0.0114                 0.0049
 IR Inten    --     26.9802                35.5099                24.7146

                      4                      5                      6
                      A                      A                      A
 Frequencies --     71.6899                95.2950               261.7397
 Red. masses --      5.4174                 2.9747                 4.9320
 Frc consts  --      0.0164                 0.0159                 0.1991
 IR Inten    --     10.3677               105.0228               279.5609

                      7                      8                      9
                      A                      A                      A
 Frequencies --    385.3479               396.6239               485.7463
 Red. masses --      1.0495                 1.2105                 3.7398
 Frc consts  --      0.0918                 0.1122                 0.5199
 IR Inten    --      5.2491                 3.4095               475.3633

                     10                     11                     12
                      A                      A                      A
 Frequencies --    619.4869               688.9840               729.9077
 Red. masses --      6.2305                 1.1875                 1.1761
 Frc consts  --      1.4088                 0.3321                 0.3692
 IR Inten    --    288.8046               546.8425               365.2986

                     13                     14                     15
                      A                      A                      A
 Frequencies --   1174.5812              1350.5323              1403.0844
 Red. masses --      1.1648                 1.1278                 1.0855
 Frc consts  --      0.9468                 1.2120                 1.2590
 IR Inten    --   1905.8522              1149.1240              1397.3764

                     16                     17                     18
                      A                      A                      A
 Frequencies --   1429.6250              1706.1691              1736.1052
 Red. masses --      1.0520                 1.0209                 1.0606
 Frc consts  --      1.2668                 1.7509                 1.8835
 IR Inten    --    131.1312              1343.7604               112.3529

                     19                     20                     21
                      A                      A                      A
 Frequencies --   1774.2996              1858.2361              3610.8281
 Red. masses --      1.0849                 1.1493                 1.0403
 Frc consts  --      2.0122                 2.3383                 7.9911
 IR Inten    --    754.8523              2816.4687               227.4098

                     22                     23                     24
                      A                      A                      A
 Frequencies --   3663.8651              3705.3027              3769.1220
 Red. masses --      1.0402                 1.0861                 1.0852
 Frc consts  --      8.2274                 8.7851                 9.0834
 IR Inten    --    116.2376               310.8883               220.5757

 - Thermochemistry -
 -------------------
 Temperature   298.150 Kelvin.  Pressure   1.00000 Atm.
 Atom     1 has atomic number 80 and mass 201.97060

 Molecular mass:   256.00229 amu.
 Principal axes and moments of inertia in atomic units:
                           1         2         3
     Eigenvalues --   675.286901199.986201857.06737
           X            0.99990  -0.01425   0.00001
           Y            0.01425   0.99990   0.00004
           Z           -0.00001  -0.00004   1.00000
 This molecule is an asymmetric top.
 Rotational symmetry number  1.
 Warning -- assumption of classical behavior for rotation
           may cause significant error
 Rotational temperatures (Kelvin)      0.12826     0.07218     0.04664
 Rotational constants (GHZ):           2.67255     1.50397     0.97182
    2 imaginary frequencies ignored.
 Zero-point vibrational energy     185152.5 (Joules/Mol)
                                   44.25250 (Kcal/Mol)
 Warning -- explicit consideration of   8 degrees of freedom as
           vibrations may cause significant error
 Vibrational temperatures:     55.40   103.15   137.11   376.58   554.43
          (Kelvin)            570.65   698.88   891.30   991.29  1050.17
                             1689.96  1943.11  2018.73  2056.91  2454.80
                             2497.87  2552.82  2673.59  5195.18  5271.48
                             5331.10  5422.93

 Zero-point correction=                           0.070521 (Hartree/Particle)
 Thermal correction to Energy=                    0.077504
 Thermal correction to Enthalpy=                  0.078448
 Thermal correction to Gibbs Free Energy=         0.035794
 Sum of electronic and zero-point Energies=           -202.990857
 Sum of electronic and thermal Energies=              -202.983874
 Sum of electronic and thermal Enthalpies=            -202.982930
 Sum of electronic and thermal Free Energies=         -203.025584

                     E (Thermal)             CV                S
                      KCal/Mol        Cal/Mol-Kelvin    Cal/Mol-Kelvin
 Total                   48.635             21.144             89.773
 Electronic               0.000              0.000              0.000
 Translational            0.889              2.981             42.520
 Rotational               0.889              2.981             28.800
 Vibrational             46.857             15.183             18.454
 Vibration     1          0.594              1.981              5.335
 Vibration     2          0.598              1.968              4.106
 Vibration     3          0.603              1.953              3.548
 Vibration     4          0.669              1.743              1.650
 Vibration     5          0.754              1.501              1.018
 Vibration     6          0.763              1.477              0.975
 Vibration     7          0.842              1.282              0.695
 Vibration     8          0.979              0.991              0.417

 Normal termination of Gaussian 16 at Wed May 11 21:24:05 2022.
