 Gaussian 16, Revision A.03,
 Gaussian 16:  ES64L-G16RevA.03 25-Dec-2016

 ------------------------
 #p MP2(full) SDDAll freq
 ------------------------

 file 'w4s1.log' Now we use Def2-QZVPPD, but it was opt at: ---' #p ZOR
 A-SR+SO PBE QZ4P'---
 ----------------------------------------------------------------------
 Symbolic Z-matrix:
 Charge =  2 Multiplicity = 1

                         Standard orientation:
 ---------------------------------------------------------------------
 Center     Atomic      Atomic             Coordinates (Angstroms)
 Number     Number       Type             X           Y           Z
 ---------------------------------------------------------------------
      1         80           0       -0.000028   -0.173307    0.000180
      2          1           0       -4.303830    1.531863   -0.161281
      3          8           0       -3.865460    0.827324    0.356708
      4          1           0       -4.547874    0.202385    0.673712
      5          1           0        2.934095    0.344657    0.150317
      6          8           0        1.886227   -0.123060    0.672972
      7          1           0        2.045176   -0.763141    1.391806
      8          1           0        4.548479    0.200136   -0.673235
      9          8           0        3.865829    0.825998   -0.358617
     10          1           0        4.303758    1.532562    0.156974
     11          1           0       -2.045881   -0.769105   -1.387992
     12          8           0       -1.886321   -0.125160   -0.672752
     13          1           0       -2.933925    0.344377   -0.151189
 ---------------------------------------------------------------------

 SCF Done:  E(RHF) =  -219.558220408     A.U. after   13 cycles
 E2 =    -0.6573387952D+00 EUMP2 =    -0.22021555920336D+03
 E2 =    -0.6573387952D+00 EUMP2 =    -0.22021555920336D+03

 The electronic state is 1-A.
 Alpha  occ. eigenvalues --   -5.45164  -3.44709  -3.44167  -3.44146  -1.75218
 Alpha  occ. eigenvalues --   -1.75190  -1.67033  -1.65931  -1.11256  -1.10238
 Alpha  occ. eigenvalues --   -1.08552  -1.08548  -1.08047  -1.03592  -1.02160
 Alpha  occ. eigenvalues --   -1.00852  -1.00851  -0.95697  -0.92967  -0.90915
 Alpha  occ. eigenvalues --   -0.90092  -0.84885  -0.83758  -0.83242  -0.83197
 Alpha virt. eigenvalues --   -0.26231  -0.20729  -0.20428  -0.17442  -0.15826
 Alpha virt. eigenvalues --   -0.12243  -0.11523  -0.08771  -0.08285  -0.08175
 Alpha virt. eigenvalues --   -0.06751  -0.05877  -0.05063  -0.02352  -0.02327

 Mulliken charges:
               1
     1  Hg   1.394520
     2  H    0.545311
     3  O   -0.862282
     4  H    0.544123
     5  H    0.654050
     6  O   -1.111329
     7  H    0.532809
     8  H    0.544159
     9  O   -0.862345
    10  H    0.545334
    11  H    0.532768
    12  O   -1.111077
    13  H    0.653958
 Sum of Mulliken charges =   2.00000

 Dipole moment (field-independent basis, Debye):
    X=             -0.0006    Y=              0.6197    Z=              0.0042  Tot=              0.6198
 Quadrupole moment (field-independent basis, Debye-Ang):
   XX=             73.6467   YY=            -35.0326   ZZ=            -38.9872
   XY=              0.0178   XZ=              4.2962   YZ=             -0.0029

  Exact polarizability:  65.600   0.001  34.527   1.055  -0.001  33.544
 Approx polarizability:  34.701  -0.000  25.253  -0.333  -0.001  24.097

 ******    4 imaginary frequencies (negative Signs) ******

                      1                      2                      3
                      A                      A                      A
 Frequencies --   -225.5298              -217.0034              -101.2174
 Red. masses --      1.0694                 1.0398                 2.3203
 Frc consts  --      0.0320                 0.0288                 0.0140
 IR Inten    --    105.7910                52.2819                10.5637

                      4                      5                      6
                      A                      A                      A
 Frequencies --    -67.7672                42.3801                95.9880
 Red. masses --      3.4996                 5.0270                 4.2629
 Frc consts  --      0.0095                 0.0053                 0.0231
 IR Inten    --     48.5206                 8.7818               386.0629

                      7                      8                      9
                      A                      A                      A
 Frequencies --    115.8005               311.0939               326.3954
 Red. masses --      4.9119                 1.1916                 1.2072
 Frc consts  --      0.0388                 0.0679                 0.0758
 IR Inten    --     11.1135               146.0858               100.8838

                     10                     11                     12
                      A                      A                      A
 Frequencies --    414.9580               418.5390               448.7308
 Red. masses --      1.6282                 2.4233                 1.7402
 Frc consts  --      0.1652                 0.2501                 0.2065
 IR Inten    --   1401.1948                 8.4826                60.4701

                     13                     14                     15
                      A                      A                      A
 Frequencies --    452.7701               533.7356               641.4315
 Red. masses --      1.6480                 2.7520                 3.8188
 Frc consts  --      0.1990                 0.4619                 0.9257
 IR Inten    --    559.7860              2753.9476               125.7837

                     16                     17                     18
                      A                      A                      A
 Frequencies --    719.0377               720.7847               880.4405
 Red. masses --      1.2497                 1.1960                 2.0196
 Frc consts  --      0.3807                 0.3661                 0.9224
 IR Inten    --    557.4619               248.6185              2030.8626

                     19                     20                     21
                      A                      A                      A
 Frequencies --    952.2991              1103.1677              1131.5576
 Red. masses --      1.2519                 1.0814                 1.0742
 Frc consts  --      0.6689                 0.7754                 0.8104
 IR Inten    --    292.1252              1341.7738               634.6573

                     22                     23                     24
                      A                      A                      A
 Frequencies --   1559.3427              1567.8537              1693.6252
 Red. masses --      1.0664                 1.0660                 1.0569
 Frc consts  --      1.5278                 1.5440                 1.7862
 IR Inten    --    971.9166                24.0885               164.6583

                     25                     26                     27
                      A                      A                      A
 Frequencies --   1694.8484              1792.9510              1797.2166
 Red. masses --      1.0578                 1.0854                 1.0875
 Frc consts  --      1.7903                 2.0558                 2.0697
 IR Inten    --    210.0529               695.8428               115.9318

                     28                     29                     30
                      A                      A                      A
 Frequencies --   3650.8483              3651.7473              3719.6232
 Red. masses --      1.0402                 1.0403                 1.0664
 Frc consts  --      8.1685                 8.1738                 8.6927
 IR Inten    --    295.8757                12.0236               237.7247

                     31                     32                     33
                      A                      A                      A
 Frequencies --   3721.6409              3749.2976              3749.4779
 Red. masses --      1.0665                 1.0848                 1.0852
 Frc consts  --      8.7029                 8.9846                 8.9887
 IR Inten    --     82.9174               201.3315               334.5443

 - Thermochemistry -
 -------------------
 Temperature   298.150 Kelvin.  Pressure   1.00000 Atm.
 Atom     1 has atomic number 80 and mass 201.97060

 Molecular mass:   274.01286 amu.
 Principal axes and moments of inertia in atomic units:
                           1         2         3
     Eigenvalues --   206.318282571.695372610.34790
           X            1.00000   0.00001   0.00267
           Y           -0.00001   1.00000   0.00012
           Z           -0.00267  -0.00012   1.00000
 This molecule is an asymmetric top.
 Rotational symmetry number  1.
 Rotational temperatures (Kelvin)      0.41981     0.03368     0.03318
 Rotational constants (GHZ):           8.74736     0.70177     0.69138
    4 imaginary frequencies ignored.
 Zero-point vibrational energy     249167.7 (Joules/Mol)
                                   59.55250 (Kcal/Mol)
 Warning -- explicit consideration of  10 degrees of freedom as
           vibrations may cause significant error
 Vibrational temperatures:     60.98   138.11   166.61   447.59   469.61
          (Kelvin)            597.03   602.18   645.62   651.44   767.93
                              922.88  1034.53  1037.05  1266.76  1370.15
                             1587.21  1628.06  2243.55  2255.79  2436.75
                             2438.51  2579.66  2585.79  5252.76  5254.05
                             5351.71  5354.61  5394.40  5394.66

 Zero-point correction=                           0.094903 (Hartree/Particle)
 Thermal correction to Energy=                    0.102654
 Thermal correction to Enthalpy=                  0.103598
 Thermal correction to Gibbs Free Energy=         0.060237
 Sum of electronic and zero-point Energies=           -220.120656
 Sum of electronic and thermal Energies=              -220.112905
 Sum of electronic and thermal Enthalpies=            -220.111961
 Sum of electronic and thermal Free Energies=         -220.155322

                     E (Thermal)             CV                S
                      KCal/Mol        Cal/Mol-Kelvin    Cal/Mol-Kelvin
 Total                   64.416             26.133             91.260
 Electronic               0.000              0.000              0.000
 Translational            0.889              2.981             42.723
 Rotational               0.889              2.981             28.717
 Vibrational             62.639             20.171             19.820
 Vibration     1          0.595              1.980              5.145
 Vibration     2          0.603              1.952              3.534
 Vibration     3          0.608              1.936              3.169
 Vibration     4          0.700              1.653              1.357
 Vibration     5          0.710              1.623              1.278
 Vibration     6          0.778              1.438              0.909
 Vibration     7          0.781              1.430              0.897
 Vibration     8          0.808              1.364              0.800
 Vibration     9          0.811              1.355              0.787
 Vibration    10          0.889              1.175              0.579

 Normal termination of Gaussian 16 at Wed May 11 21:24:44 2022.
