 Gaussian 16, Revision A.03,
 Gaussian 16:  ES64L-G16RevA.03 25-Dec-2016

 ------------------------
 #p MP2(full) SDDAll freq
 ------------------------

 file 'w4s2.log' Now we use Def2-QZVPPD, but it was opt at: ---' #p ZOR
 A-SR+SO PBE QZ4P'---
 ----------------------------------------------------------------------
 Symbolic Z-matrix:
 Charge =  2 Multiplicity = 1

                         Standard orientation:
 ---------------------------------------------------------------------
 Center     Atomic      Atomic             Coordinates (Angstroms)
 Number     Number       Type             X           Y           Z
 ---------------------------------------------------------------------
      1         80           0        0.907901   -0.057242   -0.049432
      2          1           0       -5.814105    1.335307   -0.299081
      3          8           0       -5.377977    0.488717   -0.515773
      4          1           0       -6.069817   -0.183378   -0.664125
      5          1           0       -0.921356   -1.486151   -0.801792
      6          8           0       -0.939283   -0.710013   -0.206961
      7          1           0       -2.621157   -0.286999    0.451939
      8          1           0        3.253759    1.186897   -0.533827
      9          8           0        2.808405    0.775455    0.236592
     10          1           0        3.474643    0.248166    0.726030
     11          1           0       -4.451887    0.181351    0.197656
     12          8           0       -3.473603   -0.031197    0.887719
     13          1           0       -3.622532   -0.599515    1.665172
 ---------------------------------------------------------------------

 SCF Done:  E(RHF) =  -219.551661354     A.U. after   15 cycles
 E2 =    -0.6573793329D+00 EUMP2 =    -0.22020904068643D+03
 E2 =    -0.6573793329D+00 EUMP2 =    -0.22020904068643D+03

 The electronic state is 1-A.
 Alpha  occ. eigenvalues --   -5.45354  -3.44955  -3.44327  -3.44315  -1.76552
 Alpha  occ. eigenvalues --   -1.73011  -1.69511  -1.61283  -1.12199  -1.09305
 Alpha  occ. eigenvalues --   -1.08842  -1.05924  -1.05331  -1.04286  -1.01737
 Alpha  occ. eigenvalues --   -1.00989  -1.00988  -0.94948  -0.92617  -0.90771
 Alpha  occ. eigenvalues --   -0.88384  -0.86656  -0.84488  -0.78951  -0.78715
 Alpha virt. eigenvalues --   -0.27534  -0.20773  -0.20407  -0.17285  -0.15299
 Alpha virt. eigenvalues --   -0.11333  -0.09676  -0.08344  -0.07878  -0.06992
 Alpha virt. eigenvalues --   -0.06085  -0.05721  -0.05219  -0.04541  -0.03261

 Mulliken charges:
               1
     1  Hg   1.295237
     2  H    0.530934
     3  O   -0.862389
     4  H    0.529407
     5  H    0.488099
     6  O   -1.018639
     7  H    0.613999
     8  H    0.564928
     9  O   -0.916669
    10  H    0.564811
    11  H    0.624479
    12  O   -0.934745
    13  H    0.520547
 Sum of Mulliken charges =   2.00000

 Dipole moment (field-independent basis, Debye):
    X=             -7.9210    Y=             -0.4766    Z=              0.3168  Tot=              7.9416
 Quadrupole moment (field-independent basis, Debye-Ang):
   XX=            102.9944   YY=            -36.2227   ZZ=            -38.1572
   XY=              2.5514   XZ=             -4.5110   YZ=             -2.3055

  Exact polarizability:  64.626   4.364  35.263   2.539  -0.971  34.093
 Approx polarizability:  35.655   1.434  25.217   1.184  -0.551  24.419

 ******    5 imaginary frequencies (negative Signs) ******

                      1                      2                      3
                      A                      A                      A
 Frequencies --   -278.1207              -266.7218              -212.1983
 Red. masses --      1.0291                 1.0372                 1.1362
 Frc consts  --      0.0469                 0.0435                 0.0301
 IR Inten    --     75.6700                58.0678                62.6106

                      4                      5                      6
                      A                      A                      A
 Frequencies --    -77.5443               -36.6175                40.8821
 Red. masses --      3.3744                 4.6173                 4.9934
 Frc consts  --      0.0120                 0.0036                 0.0049
 IR Inten    --     27.0192                25.2593                40.8906

                      7                      8                      9
                      A                      A                      A
 Frequencies --     93.2859               140.1019               174.5100
 Red. masses --      5.1973                 3.4330                 5.1414
 Frc consts  --      0.0266                 0.0397                 0.0923
 IR Inten    --     26.4873                55.8161                33.9070

                     10                     11                     12
                      A                      A                      A
 Frequencies --    302.1066               421.5398               477.1422
 Red. masses --      1.2464                 1.1774                 7.5818
 Frc consts  --      0.0670                 0.1233                 1.0170
 IR Inten    --     74.1821                63.4061                19.6111

                     13                     14                     15
                      A                      A                      A
 Frequencies --    527.2248               595.1254               651.3896
 Red. masses --      1.0515                 6.0676                 4.5825
 Frc consts  --      0.1722                 1.2662                 1.1456
 IR Inten    --    130.7028                 2.9432               573.0567

                     16                     17                     18
                      A                      A                      A
 Frequencies --    694.9443               734.2720               760.9142
 Red. masses --      1.2221                 1.1890                 1.1553
 Frc consts  --      0.3477                 0.3777                 0.3941
 IR Inten    --    327.5800               225.5152              2289.4189

                     19                     20                     21
                      A                      A                      A
 Frequencies --    763.8820               871.1886              1071.7339
 Red. masses --      1.1268                 1.1119                 1.0549
 Frc consts  --      0.3874                 0.4972                 0.7139
 IR Inten    --    692.5732               372.9517               158.0881

                     22                     23                     24
                      A                      A                      A
 Frequencies --   1612.6180              1670.1063              1748.4585
 Red. masses --      1.0669                 1.0693                 1.0857
 Frc consts  --      1.6346                 1.7573                 1.9555
 IR Inten    --    504.4879               262.2719               142.3858

                     25                     26                     27
                      A                      A                      A
 Frequencies --   1793.2815              1812.3237              3431.1691
 Red. masses --      1.0725                 1.0846                 1.0583
 Frc consts  --      2.0320                 2.0989                 7.3406
 IR Inten    --    128.0233               585.3652              1104.2058

                     28                     29                     30
                      A                      A                      A
 Frequencies --   3613.5543              3674.6035              3676.5631
 Red. masses --      1.0406                 1.0406                 1.0661
 Frc consts  --      8.0057                 8.2782                 8.4902
 IR Inten    --    232.8648               101.2228               119.6036

                     31                     32                     33
                      A                      A                      A
 Frequencies --   3715.2221              3752.6908              3775.1826
 Red. masses --      1.0857                 1.0695                 1.0849
 Frc consts  --      8.8292                 8.8741                 9.1098
 IR Inten    --    289.6925               227.4242               246.7219

 - Thermochemistry -
 -------------------
 Temperature   298.150 Kelvin.  Pressure   1.00000 Atm.
 Atom     1 has atomic number 80 and mass 201.97060

 Molecular mass:   274.01286 amu.
 Principal axes and moments of inertia in atomic units:
                           1         2         3
     Eigenvalues --   186.064683964.798213980.68540
           X            1.00000   0.00304   0.00000
           Y           -0.00300   0.98665  -0.16285
           Z           -0.00050   0.16285   0.98665
 This molecule is an asymmetric top.
 Rotational symmetry number  1.
 Rotational temperatures (Kelvin)      0.46550     0.02185     0.02176
 Rotational constants (GHZ):           9.69954     0.45519     0.45337
    5 imaginary frequencies ignored.
 Zero-point vibrational energy     254780.8 (Joules/Mol)
                                   60.89406 (Kcal/Mol)
 Warning -- explicit consideration of   9 degrees of freedom as
           vibrations may cause significant error
 Vibrational temperatures:     58.82   134.22   201.58   251.08   434.66
          (Kelvin)            606.50   686.50   758.56   856.25   937.20
                              999.87  1056.45  1094.79  1099.06  1253.45
                             1541.99  2320.20  2402.91  2515.64  2580.13
                             2607.53  4936.69  5199.10  5286.93  5289.75
                             5345.38  5399.29  5431.65

 Zero-point correction=                           0.097041 (Hartree/Particle)
 Thermal correction to Energy=                    0.104679
 Thermal correction to Enthalpy=                  0.105623
 Thermal correction to Gibbs Free Energy=         0.061948
 Sum of electronic and zero-point Energies=           -220.112000
 Sum of electronic and thermal Energies=              -220.104362
 Sum of electronic and thermal Enthalpies=            -220.103417
 Sum of electronic and thermal Free Energies=         -220.147093

                     E (Thermal)             CV                S
                      KCal/Mol        Cal/Mol-Kelvin    Cal/Mol-Kelvin
 Total                   65.687             25.285             91.922
 Electronic               0.000              0.000              0.000
 Translational            0.889              2.981             42.723
 Rotational               0.889              2.981             29.464
 Vibrational             63.910             19.324             19.736
 Vibration     1          0.594              1.981              5.216
 Vibration     2          0.602              1.954              3.590
 Vibration     3          0.615              1.913              2.802
 Vibration     4          0.627              1.874              2.386
 Vibration     5          0.694              1.670              1.405
 Vibration     6          0.784              1.423              0.887
 Vibration     7          0.834              1.301              0.718
 Vibration     8          0.882              1.190              0.593
 Vibration     9          0.953              1.042              0.458

 Normal termination of Gaussian 16 at Wed May 11 21:25:22 2022.
