 Gaussian 16, Revision A.03,
 Gaussian 16:  ES64L-G16RevA.03 25-Dec-2016

 ------------------------
 #p MP2(full) SDDAll freq
 ------------------------

 file 'w4s3.log' Now we use Def2-QZVPPD, but it was opt at: ---' #p ZOR
 A-SR+SO PBE QZ4P'---
 ----------------------------------------------------------------------
 Symbolic Z-matrix:
 Charge =  2 Multiplicity = 1

                         Standard orientation:
 ---------------------------------------------------------------------
 Center     Atomic      Atomic             Coordinates (Angstroms)
 Number     Number       Type             X           Y           Z
 ---------------------------------------------------------------------
      1         80           0       -0.526081   -0.006506   -0.011734
      2          1           0       -3.123595   -0.202447   -0.699547
      3          8           0       -2.605646    0.080323    0.084589
      4          1           0       -3.054933   -0.255851    0.889530
      5          1           0        1.989929   -0.952130   -0.019452
      6          8           0        1.440780    0.004964   -0.151049
      7          1           0        1.978464    0.974367   -0.018271
      8          1           0        3.133605   -2.356699    0.850416
      9          8           0        2.597638   -2.141332    0.065088
     10          1           0        3.084079   -2.466603   -0.714964
     11          1           0        3.092232    2.391655    0.851455
     12          8           0        2.560614    2.166864    0.065697
     13          1           0        3.039618    2.501658   -0.715053
 ---------------------------------------------------------------------

 SCF Done:  E(RHF) =  -219.550437346     A.U. after   14 cycles
 E2 =    -0.6541440196D+00 EUMP2 =    -0.22020458136525D+03
 E2 =    -0.6541440196D+00 EUMP2 =    -0.22020458136525D+03

 The electronic state is 1-A.
 Alpha  occ. eigenvalues --   -5.48026  -3.47640  -3.47060  -3.47044  -1.78352
 Alpha  occ. eigenvalues --   -1.70826  -1.69936  -1.64285  -1.14178  -1.12415
 Alpha  occ. eigenvalues --   -1.10279  -1.04655  -1.04492  -1.04298  -1.04220
 Alpha  occ. eigenvalues --   -1.03716  -1.03703  -1.00087  -0.95338  -0.92284
 Alpha  occ. eigenvalues --   -0.87456  -0.86926  -0.83146  -0.83098  -0.82573
 Alpha virt. eigenvalues --   -0.29487  -0.22715  -0.22171  -0.18414  -0.16936
 Alpha virt. eigenvalues --   -0.12028  -0.11278  -0.09958  -0.08762  -0.08211
 Alpha virt. eigenvalues --   -0.07820  -0.06561  -0.06406  -0.04314  -0.03577

 Mulliken charges:
               1
     1  Hg   1.386699
     2  H    0.572309
     3  O   -0.921398
     4  H    0.571779
     5  H    0.643288
     6  O   -1.159296
     7  H    0.643891
     8  H    0.524650
     9  O   -0.921203
    10  H    0.525954
    11  H    0.525840
    12  O   -0.919677
    13  H    0.527166
 Sum of Mulliken charges =   2.00000

 Dipole moment (field-independent basis, Debye):
    X=              3.6243    Y=             -1.3296    Z=              0.7198  Tot=              3.9270
 Quadrupole moment (field-independent basis, Debye-Ang):
   XX=             30.5290   YY=            -21.8766   ZZ=            -35.1545
   XY=              5.0135   XZ=              1.2002   YZ=             -0.2707

  Exact polarizability:  56.619   0.594  39.483  -0.423  -0.086  34.089
 Approx polarizability:  30.805   0.451  25.493   0.034  -0.100  26.088

 ******    4 imaginary frequencies (negative Signs) ******

                      1                      2                      3
                      A                      A                      A
 Frequencies --   -291.5807              -290.4397              -271.1871
 Red. masses --      1.0106                 1.0516                 1.0246
 Frc consts  --      0.0506                 0.0523                 0.0444
 IR Inten    --      7.0519                50.0063                55.4940

                      4                      5                      6
                      A                      A                      A
 Frequencies --    -47.7752                18.8652                60.7656
 Red. masses --      3.4407                 4.9302                 5.2445
 Frc consts  --      0.0046                 0.0010                 0.0114
 IR Inten    --     67.0743                 0.6430                 5.7060

                      7                      8                      9
                      A                      A                      A
 Frequencies --    116.8872               121.4003               323.0310
 Red. masses --      6.0324                 3.8462                 5.4916
 Frc consts  --      0.0486                 0.0334                 0.3376
 IR Inten    --     26.6062                14.0993                38.9982

                     10                     11                     12
                      A                      A                      A
 Frequencies --    364.5294               396.8920               411.9104
 Red. masses --      1.0755                 3.1520                 1.3934
 Frc consts  --      0.0842                 0.2925                 0.1393
 IR Inten    --      6.8634               566.9919                16.4261

                     13                     14                     15
                      A                      A                      A
 Frequencies --    487.2382               646.0450               673.8358
 Red. masses --      7.3092                 1.1628                 1.4675
 Frc consts  --      1.0224                 0.2859                 0.3926
 IR Inten    --     45.1352               661.3736               228.0961

                     16                     17                     18
                      A                      A                      A
 Frequencies --    690.7820               731.4820               782.1636
 Red. masses --      1.1658                 3.3912                 1.1314
 Frc consts  --      0.3278                 1.0691                 0.4078
 IR Inten    --    386.1951                90.2411                43.2146

                     19                     20                     21
                      A                      A                      A
 Frequencies --   1279.6674              1397.2919              1419.9955
 Red. masses --      1.0448                 1.0638                 1.0499
 Frc consts  --      1.0081                 1.2237                 1.2473
 IR Inten    --    624.9937              1152.0617               361.1309

                     22                     23                     24
                      A                      A                      A
 Frequencies --   1476.0481              1500.2381              1748.4448
 Red. masses --      1.1491                 1.1437                 1.0855
 Frc consts  --      1.4751                 1.5166                 1.9551
 IR Inten    --   1433.0757              1575.1050               187.5106

                     25                     26                     27
                      A                      A                      A
 Frequencies --   1764.2887              1778.7147              1808.4197
 Red. masses --      1.0701                 1.0865                 1.0852
 Frc consts  --      1.9626                 2.0254                 2.0911
 IR Inten    --     66.5509               839.1980              2612.8372

                     28                     29                     30
                      A                      A                      A
 Frequencies --   3602.1206              3689.1809              3691.0437
 Red. masses --      1.0406                 1.0404                 1.0405
 Frc consts  --      7.9549                 8.3425                 8.3517
 IR Inten    --    257.3201                66.3344               110.7889

                     31                     32                     33
                      A                      A                      A
 Frequencies --   3703.3183              3794.9006              3796.4763
 Red. masses --      1.0865                 1.0848                 1.0849
 Frc consts  --      8.7796                 9.2041                 9.2133
 IR Inten    --    309.9504                85.6240               318.0337

 - Thermochemistry -
 -------------------
 Temperature   298.150 Kelvin.  Pressure   1.00000 Atm.
 Atom     1 has atomic number 80 and mass 201.97060

 Molecular mass:   274.01286 amu.
 Principal axes and moments of inertia in atomic units:
                           1         2         3
     Eigenvalues --   638.328821702.535942309.28074
           X            0.99999   0.00432   0.00033
           Y           -0.00432   0.99999  -0.00048
           Z           -0.00034   0.00047   1.00000
 This molecule is an asymmetric top.
 Rotational symmetry number  1.
 Warning -- assumption of classical behavior for rotation
           may cause significant error
 Rotational temperatures (Kelvin)      0.13569     0.05087     0.03751
 Rotational constants (GHZ):           2.82729     1.06003     0.78152
    4 imaginary frequencies ignored.
 Zero-point vibrational energy     252866.5 (Joules/Mol)
                                   60.43654 (Kcal/Mol)
 Warning -- explicit consideration of   9 degrees of freedom as
           vibrations may cause significant error
 Vibrational temperatures:     27.14    87.43   168.17   174.67   464.77
          (Kelvin)            524.48   571.04   592.65   701.03   929.51
                              969.50   993.88  1052.44  1125.36  1841.16
                             2010.39  2043.06  2123.70  2158.51  2515.62
                             2538.42  2559.17  2601.91  5182.65  5307.91
                             5310.59  5328.25  5460.02  5462.28

 Zero-point correction=                           0.096312 (Hartree/Particle)
 Thermal correction to Energy=                    0.104441
 Thermal correction to Enthalpy=                  0.105386
 Thermal correction to Gibbs Free Energy=         0.059747
 Sum of electronic and zero-point Energies=           -220.108270
 Sum of electronic and thermal Energies=              -220.100140
 Sum of electronic and thermal Enthalpies=            -220.099196
 Sum of electronic and thermal Free Energies=         -220.144834

                     E (Thermal)             CV                S
                      KCal/Mol        Cal/Mol-Kelvin    Cal/Mol-Kelvin
 Total                   65.538             25.907             96.054
 Electronic               0.000              0.000              0.000
 Translational            0.889              2.981             42.723
 Rotational               0.889              2.981             29.308
 Vibrational             63.761             19.945             24.023
 Vibration     1          0.593              1.986              6.750
 Vibration     2          0.597              1.973              4.432
 Vibration     3          0.608              1.935              3.151
 Vibration     4          0.609              1.931              3.078
 Vibration     5          0.708              1.629              1.295
 Vibration     6          0.738              1.545              1.103
 Vibration     7          0.763              1.477              0.974
 Vibration     8          0.776              1.444              0.920
 Vibration     9          0.843              1.278              0.691

 Normal termination of Gaussian 16 at Wed May 11 21:26:01 2022.
