 Gaussian 16, Revision A.03,
 Gaussian 16:  ES64L-G16RevA.03 25-Dec-2016

 ------------------------
 #p MP2(full) SDDAll freq
 ------------------------

 file 'w4s4.log' Now we use Def2-QZVPPD, but it was opt at: ---' #p ZOR
 A-SR+SO PBE QZ4P'---
 ----------------------------------------------------------------------
 Symbolic Z-matrix:
 Charge =  2 Multiplicity = 1

                         Standard orientation:
 ---------------------------------------------------------------------
 Center     Atomic      Atomic             Coordinates (Angstroms)
 Number     Number       Type             X           Y           Z
 ---------------------------------------------------------------------
      1         80           0       -0.076329   -0.096320   -0.022237
      2          1           0        1.471131   -0.841553   -2.359394
      3          8           0        1.607292   -0.339190   -1.531943
      4          1           0        2.472254   -0.619551   -1.173477
      5          1           0       -2.531327   -1.247400    0.804225
      6          8           0       -2.217897   -0.719863    0.042009
      7          1           0       -2.609101   -1.125647   -0.757866
      8          1           0        1.522795   -1.094949    2.229539
      9          8           0        1.523952   -0.317335    1.637200
     10          1           0        1.695263    0.457910    2.207379
     11          1           0       -1.143756    2.637897    0.195876
     12          8           0       -0.277137    2.224192    0.017696
     13          1           0        0.139345    2.756471   -0.686991
 ---------------------------------------------------------------------

 SCF Done:  E(RHF) =  -219.571399271     A.U. after   13 cycles
 E2 =    -0.6412615490D+00 EUMP2 =    -0.22021266081985D+03
 E2 =    -0.6412615490D+00 EUMP2 =    -0.22021266081985D+03

 The electronic state is 1-A.
 Alpha  occ. eigenvalues --   -5.45962  -3.45698  -3.45641  -3.45569  -1.75390
 Alpha  occ. eigenvalues --   -1.73088  -1.72785  -1.71417  -1.10916  -1.09098
 Alpha  occ. eigenvalues --   -1.08223  -1.07186  -1.06977  -1.06154  -1.05177
 Alpha  occ. eigenvalues --   -1.02780  -1.02380  -0.99325  -0.96060  -0.91832
 Alpha  occ. eigenvalues --   -0.90609  -0.90222  -0.87387  -0.86773  -0.85799
 Alpha virt. eigenvalues --   -0.31488  -0.21270  -0.20144  -0.19214  -0.18602
 Alpha virt. eigenvalues --   -0.12032  -0.11865  -0.10328  -0.09399  -0.09009
 Alpha virt. eigenvalues --   -0.06892  -0.06531  -0.05068  -0.04050  -0.03943

 Mulliken charges:
               1
     1  Hg   1.392298
     2  H    0.537773
     3  O   -0.919783
     4  H    0.540261
     5  H    0.546420
     6  O   -0.915375
     7  H    0.546963
     8  H    0.534512
     9  O   -0.934825
    10  H    0.539574
    11  H    0.531739
    12  O   -0.933294
    13  H    0.533737
 Sum of Mulliken charges =   2.00000

 Dipole moment (field-independent basis, Debye):
    X=             -0.9220    Y=             -2.0892    Z=              0.2242  Tot=              2.2946
 Quadrupole moment (field-independent basis, Debye-Ang):
   XX=            -15.7374   YY=            -19.3322   ZZ=            -19.2397
   XY=              0.3044   XZ=              1.1649   YZ=             -0.6361

  Exact polarizability:  43.560   0.704  37.360  -0.062  -0.079  38.018
 Approx polarizability:  25.482   0.531  23.931   0.153  -0.162  25.392

 ******    7 imaginary frequencies (negative Signs) ******

                      1                      2                      3
                      A                      A                      A
 Frequencies --   -339.3494              -327.0541              -314.3716
 Red. masses --      1.0190                 1.0259                 1.0312
 Frc consts  --      0.0691                 0.0647                 0.0600
 IR Inten    --      6.7619                22.1728                65.2585

                      4                      5                      6
                      A                      A                      A
 Frequencies --   -248.1431               -53.0069               -45.9020
 Red. masses --      1.0379                 4.1184                 4.0599
 Frc consts  --      0.0377                 0.0068                 0.0050
 IR Inten    --     31.3611                12.3196                 9.6364

                      7                      8                      9
                      A                      A                      A
 Frequencies --    -35.6024                48.2660                67.1206
 Red. masses --      4.3561                 4.7686                 5.4013
 Frc consts  --      0.0033                 0.0065                 0.0143
 IR Inten    --      7.9175                 0.9331                 4.8869

                     10                     11                     12
                      A                      A                      A
 Frequencies --    300.3895               306.4490               356.5358
 Red. masses --      7.0258                 6.9040                 6.8897
 Frc consts  --      0.3735                 0.3820                 0.5160
 IR Inten    --      9.0123                14.0489                 7.5975

                     13                     14                     15
                      A                      A                      A
 Frequencies --    377.4472               538.3777               555.6786
 Red. masses --      7.6651                 1.1450                 1.1350
 Frc consts  --      0.6434                 0.1955                 0.2065
 IR Inten    --     24.7740                25.2275                11.0447

                     16                     17                     18
                      A                      A                      A
 Frequencies --    585.8973               631.7760               650.4363
 Red. masses --      1.1318                 1.1379                 1.1422
 Frc consts  --      0.2289                 0.2676                 0.2847
 IR Inten    --      9.9259               145.3075               411.2293

                     19                     20                     21
                      A                      A                      A
 Frequencies --    653.7921               670.5967               674.2287
 Red. masses --      1.1514                 1.1528                 1.1481
 Frc consts  --      0.2900                 0.3055                 0.3075
 IR Inten    --    426.9943               513.9584               349.7499

                     22                     23                     24
                      A                      A                      A
 Frequencies --   1728.6292              1732.1013              1735.5005
 Red. masses --      1.0879                 1.0878                 1.0857
 Frc consts  --      1.9154                 1.9228                 1.9267
 IR Inten    --    155.3463               203.5632                55.4441

                     25                     26                     27
                      A                      A                      A
 Frequencies --   1739.0351              3640.6570              3654.7503
 Red. masses --      1.0853                 1.0403                 1.0401
 Frc consts  --      1.9339                 8.1240                 8.1853
 IR Inten    --     95.1055               194.5085               148.9670

                     28                     29                     30
                      A                      A                      A
 Frequencies --   3657.3095              3669.5234              3743.2214
 Red. masses --      1.0404                 1.0404                 1.0851
 Frc consts  --      8.1996                 8.2539                 8.9580
 IR Inten    --    104.6535                92.5224               224.2669

                     31                     32                     33
                      A                      A                      A
 Frequencies --   3759.8640              3760.8061              3773.4062
 Red. masses --      1.0846                 1.0850                 1.0846
 Frc consts  --      9.0335                 9.0412                 9.0989
 IR Inten    --    207.1371               221.6714               199.1291

 - Thermochemistry -
 -------------------
 Temperature   298.150 Kelvin.  Pressure   1.00000 Atm.
 Atom     1 has atomic number 80 and mass 201.97060

 Molecular mass:   274.01286 amu.
 Principal axes and moments of inertia in atomic units:
                           1         2         3
     Eigenvalues --   756.649281024.592851072.79980
           X            0.99998  -0.00563   0.00388
           Y            0.00572   0.99972  -0.02292
           Z           -0.00375   0.02294   0.99973
 This molecule is an asymmetric top.
 Rotational symmetry number  1.
 Warning -- assumption of classical behavior for rotation
           may cause significant error
 Rotational temperatures (Kelvin)      0.11447     0.08453     0.08074
 Rotational constants (GHZ):           2.38518     1.76142     1.68227
    7 imaginary frequencies ignored.
 Zero-point vibrational energy     257267.7 (Joules/Mol)
                                   61.48845 (Kcal/Mol)
 Warning -- explicit consideration of   9 degrees of freedom as
           vibrations may cause significant error
 Vibrational temperatures:     69.44    96.57   432.19   440.91   512.98
          (Kelvin)            543.06   774.61   799.50   842.98   908.98
                              935.83   940.66   964.84   970.06  2487.11
                             2492.11  2497.00  2502.08  5238.09  5258.37
                             5262.05  5279.63  5385.66  5409.61  5410.96
                             5429.09

 Zero-point correction=                           0.097988 (Hartree/Particle)
 Thermal correction to Energy=                    0.105194
 Thermal correction to Enthalpy=                  0.106138
 Thermal correction to Gibbs Free Energy=         0.064114
 Sum of electronic and zero-point Energies=           -220.114673
 Sum of electronic and thermal Energies=              -220.107467
 Sum of electronic and thermal Enthalpies=            -220.106523
 Sum of electronic and thermal Free Energies=         -220.148547

                     E (Thermal)             CV                S
                      KCal/Mol        Cal/Mol-Kelvin    Cal/Mol-Kelvin
 Total                   66.010             24.386             88.448
 Electronic               0.000              0.000              0.000
 Translational            0.889              2.981             42.723
 Rotational               0.889              2.981             28.210
 Vibrational             64.233             18.425             17.515
 Vibration     1          0.595              1.978              4.887
 Vibration     2          0.598              1.970              4.236
 Vibration     3          0.693              1.673              1.415
 Vibration     4          0.697              1.661              1.381
 Vibration     5          0.732              1.562              1.137
 Vibration     6          0.748              1.518              1.049
 Vibration     7          0.893              1.165              0.569
 Vibration     8          0.911              1.127              0.533
 Vibration     9          0.943              1.062              0.475

 Normal termination of Gaussian 16 at Wed May 11 21:26:40 2022.
