 Gaussian 16, Revision A.03,
 Gaussian 16:  ES64L-G16RevA.03 25-Dec-2016

 ------------------------
 #p MP2(full) SDDAll freq
 ------------------------

 file 'w5s1.log' Now we use Def2-QZVPPD, but it was opt at: ---' #p ZOR
 A-SR+SO PBE QZ4P'---
 ----------------------------------------------------------------------
 Symbolic Z-matrix:
 Charge =  2 Multiplicity = 1

                         Standard orientation:
 ---------------------------------------------------------------------
 Center     Atomic      Atomic             Coordinates (Angstroms)
 Number     Number       Type             X           Y           Z
 ---------------------------------------------------------------------
      1         80           0        0.497109   -0.155701    0.089168
      2          1           0       -3.722591    1.961873   -0.187376
      3          8           0       -3.582526    1.020098   -0.395342
      4          1           0       -4.527592    0.390651   -0.297724
      5          1           0        2.541844   -1.404255   -0.898794
      6          8           0        2.342259   -0.470039   -0.702943
      7          1           0        3.275037    0.108311   -0.413741
      8          1           0       -5.996919   -0.583512   -1.116621
      9          8           0       -5.560066   -0.395075   -0.265405
     10          1           0       -6.258829   -0.234314    0.394534
     11          1           0       -1.377155   -0.010512    1.684728
     12          8           0       -1.334067    0.207951    0.734957
     13          1           0       -2.744773    0.682913    0.064718
     14          1           0        4.754696    1.286512   -0.865152
     15          8           0        4.297470    0.857720   -0.117591
     16          1           0        4.983017    0.493218    0.472566
 ---------------------------------------------------------------------

 SCF Done:  E(RHF) =  -236.502112756     A.U. after   14 cycles
 E2 =    -0.7947059433D+00 EUMP2 =    -0.23729681869948D+03
 E2 =    -0.7947059433D+00 EUMP2 =    -0.23729681869948D+03

 The electronic state is 1-A.
 Alpha  occ. eigenvalues --   -5.42320  -3.41845  -3.41276  -3.41262  -1.71281
 Alpha  occ. eigenvalues --   -1.70315  -1.67552  -1.66498  -1.59934  -1.07904
 Alpha  occ. eigenvalues --   -1.07251  -1.05664  -1.04612  -1.03669  -1.02761
 Alpha  occ. eigenvalues --   -1.01223  -0.99006  -0.97972  -0.97970  -0.92242
 Alpha  occ. eigenvalues --   -0.90088  -0.88465  -0.86634  -0.85166  -0.82906
 Alpha  occ. eigenvalues --   -0.82489  -0.82218  -0.77895  -0.77315
 Alpha virt. eigenvalues --   -0.23757  -0.18489  -0.18376  -0.15066  -0.13871
 Alpha virt. eigenvalues --   -0.10065  -0.09373  -0.08224  -0.06741  -0.06172
 Alpha virt. eigenvalues --   -0.05165  -0.04676  -0.03864  -0.03802  -0.01333

 Mulliken charges:
               1
     1  Hg   1.318924
     2  H    0.523429
     3  O   -0.927408
     4  H    0.622232
     5  H    0.535295
     6  O   -1.058347
     7  H    0.639169
     8  H    0.519990
     9  O   -0.888854
    10  H    0.518530
    11  H    0.494814
    12  O   -1.088909
    13  H    0.638945
    14  H    0.527165
    15  O   -0.899045
    16  H    0.524070
 Sum of Mulliken charges =   2.00000

 Dipole moment (field-independent basis, Debye):
    X=             -4.2153    Y=              1.1128    Z=             -0.0671  Tot=              4.3602
 Quadrupole moment (field-independent basis, Debye-Ang):
   XX=            123.4135   YY=            -40.4286   ZZ=            -43.0105
   XY=             -6.6501   XZ=             -2.0648   YZ=              0.4737

  Exact polarizability:  76.353   0.999  41.333  -3.595   0.759  40.448
 Approx polarizability:  40.612   0.833  29.113  -0.973   0.093  29.555

 ******    6 imaginary frequencies (negative Signs) ******

                      1                      2                      3
                      A                      A                      A
 Frequencies --   -304.1434              -287.7645              -177.8499
 Red. masses --      1.0348                 1.0369                 1.3045
 Frc consts  --      0.0564                 0.0506                 0.0243
 IR Inten    --     72.0026                44.4058                38.3863

                      4                      5                      6
                      A                      A                      A
 Frequencies --    -95.7308               -57.9825               -14.6595
 Red. masses --      2.7387                 4.1599                 5.1853
 Frc consts  --      0.0148                 0.0082                 0.0007
 IR Inten    --      1.9352                27.3084                21.8350

                      7                      8                      9
                      A                      A                      A
 Frequencies --     48.0751               106.3059               109.6810
 Red. masses --      5.4597                 5.1196                 5.2136
 Frc consts  --      0.0074                 0.0341                 0.0370
 IR Inten    --      3.7307                 4.6638                51.3237

                     10                     11                     12
                      A                      A                      A
 Frequencies --    204.4564               246.9833               315.0373
 Red. masses --      3.6810                 3.4887                 1.1858
 Frc consts  --      0.0907                 0.1254                 0.0693
 IR Inten    --     79.5861               135.5623               108.7238

                     13                     14                     15
                      A                      A                      A
 Frequencies --    333.5099               381.3390               460.0014
 Red. masses --      1.1492                 3.4709                 1.3917
 Frc consts  --      0.0753                 0.2974                 0.1735
 IR Inten    --     82.7668               282.0515                77.8709

                     16                     17                     18
                      A                      A                      A
 Frequencies --    460.9346               480.9170               580.1900
 Red. masses --      1.4636                 2.5987                 1.0800
 Frc consts  --      0.1832                 0.3541                 0.2142
 IR Inten    --    186.7729               300.4260               120.7525

                     19                     20                     21
                      A                      A                      A
 Frequencies --    614.8695               673.3735               695.8097
 Red. masses --      4.6751                 2.4263                 1.9260
 Frc consts  --      1.0414                 0.6482                 0.5494
 IR Inten    --    285.5150               255.8761               162.7051

                     22                     23                     24
                      A                      A                      A
 Frequencies --    708.2857               969.6089               977.2643
 Red. masses --      1.1909                 1.0831                 1.0472
 Frc consts  --      0.3520                 0.6000                 0.5892
 IR Inten    --    344.8039               141.8391               198.6019

                     25                     26                     27
                      A                      A                      A
 Frequencies --   1153.5160              1216.7761              1293.1908
 Red. masses --      1.0644                 1.1313                 1.1819
 Frc consts  --      0.8345                 0.9868                 1.1645
 IR Inten    --    110.7289              4120.0686              1971.3913

                     28                     29                     30
                      A                      A                      A
 Frequencies --   1485.7159              1558.3652              1716.0315
 Red. masses --      1.0533                 1.0697                 1.0783
 Frc consts  --      1.3699                 1.5306                 1.8709
 IR Inten    --    382.5118               538.4915               697.1073

                     31                     32                     33
                      A                      A                      A
 Frequencies --   1719.7132              1786.3621              1795.7037
 Red. masses --      1.0744                 1.0695                 1.0599
 Frc consts  --      1.8720                 2.0108                 2.0137
 IR Inten    --    165.0561               386.5457               107.8687

                     34                     35                     36
                      A                      A                      A
 Frequencies --   1830.9524              3030.7832              3685.7719
 Red. masses --      1.0945                 1.0657                 1.0404
 Frc consts  --      2.1619                 5.7677                 8.3275
 IR Inten    --    676.8457              1960.4333               100.4472

                     37                     38                     39
                      A                      A                      A
 Frequencies --   3692.8090              3712.6606              3728.2220
 Red. masses --      1.0405                 1.0662                 1.0657
 Frc consts  --      8.3603                 8.6589                 8.7277
 IR Inten    --     76.5834               120.0465               171.6393

                     40                     41                     42
                      A                      A                      A
 Frequencies --   3745.8692              3789.5965              3797.0954
 Red. masses --      1.0653                 1.0845                 1.0847
 Frc consts  --      8.8067                 9.1759                 9.2143
 IR Inten    --    182.3880               206.6714               209.9558

 - Thermochemistry -
 -------------------
 Temperature   298.150 Kelvin.  Pressure   1.00000 Atm.
 Atom     1 has atomic number 80 and mass 201.97060

 Molecular mass:   292.02342 amu.
 Principal axes and moments of inertia in atomic units:
                           1         2         3
     Eigenvalues --   274.358444897.571934970.23176
           X            1.00000   0.00142  -0.00220
           Y           -0.00132   0.99910   0.04232
           Z            0.00226  -0.04232   0.99910
 This molecule is an asymmetric top.
 Rotational symmetry number  1.
 Rotational temperatures (Kelvin)      0.31570     0.01769     0.01743
 Rotational constants (GHZ):           6.57804     0.36850     0.36311
    6 imaginary frequencies ignored.
 Zero-point vibrational energy     317643.1 (Joules/Mol)
                                   75.91852 (Kcal/Mol)
 Warning -- explicit consideration of  13 degrees of freedom as
           vibrations may cause significant error
 Vibrational temperatures:     69.17   152.95   157.81   294.17   355.35
          (Kelvin)            453.27   479.85   548.66   661.84   663.18
                              691.93   834.76   884.66   968.83  1001.11
                             1019.07  1395.05  1406.07  1659.65  1750.67
                             1860.61  2137.61  2242.14  2468.99  2474.28
                             2570.18  2583.62  2634.33  4360.62  5303.00
                             5313.13  5341.69  5364.08  5389.47  5452.38
                             5463.17

 Zero-point correction=                           0.120984 (Hartree/Particle)
 Thermal correction to Energy=                    0.129814
 Thermal correction to Enthalpy=                  0.130758
 Thermal correction to Gibbs Free Energy=         0.084853
 Sum of electronic and zero-point Energies=           -237.175835
 Sum of electronic and thermal Energies=              -237.167005
 Sum of electronic and thermal Enthalpies=            -237.166061
 Sum of electronic and thermal Free Energies=         -237.211965

                     E (Thermal)             CV                S
                      KCal/Mol        Cal/Mol-Kelvin    Cal/Mol-Kelvin
 Total                   81.459             30.445             96.614
 Electronic               0.000              0.000              0.000
 Translational            0.889              2.981             42.912
 Rotational               0.889              2.981             30.280
 Vibrational             79.682             24.484             23.421
 Vibration     1          0.595              1.978              4.895
 Vibration     2          0.605              1.944              3.335
 Vibration     3          0.606              1.941              3.275
 Vibration     4          0.640              1.834              2.093
 Vibration     5          0.661              1.768              1.752
 Vibration     6          0.702              1.645              1.336
 Vibration     7          0.715              1.609              1.243
 Vibration     8          0.751              1.510              1.034
 Vibration     9          0.818              1.339              0.766
 Vibration    10          0.819              1.337              0.763
 Vibration    11          0.837              1.292              0.708
 Vibration    12          0.937              1.074              0.485
 Vibration    13          0.974              1.000              0.425

 Normal termination of Gaussian 16 at Wed May 11 21:27:40 2022.
