 Gaussian 16, Revision A.03,
 Gaussian 16:  ES64L-G16RevA.03 25-Dec-2016

 ------------------------
 #p MP2(full) SDDAll freq
 ------------------------

 file 'w5s10.log' Now we use Def2-QZVPPD, but it was opt at: ---' #p ZO
 RA-SR+SO PBE QZ4P'---
 ----------------------------------------------------------------------
 Symbolic Z-matrix:
 Charge =  2 Multiplicity = 1

                         Standard orientation:
 ---------------------------------------------------------------------
 Center     Atomic      Atomic             Coordinates (Angstroms)
 Number     Number       Type             X           Y           Z
 ---------------------------------------------------------------------
      1         80           0        0.285653   -0.077430   -0.163098
      2          8           0       -3.509075    0.172483    0.154362
      3          1           0       -4.065391   -0.164307    0.882666
      4          1           0       -4.140146    0.480962   -0.523796
      5          8           0        1.836856   -0.753637    1.538884
      6          1           0        2.038645   -1.701451    1.658193
      7          1           0        1.723939   -0.396561    2.440654
      8          8           0       -1.467940   -1.328880   -0.423906
      9          1           0       -2.346509   -0.811291   -0.297440
     10          1           0       -1.522472   -1.868993   -1.235202
     11          8           0       -1.092652    1.540283    0.861048
     12          1           0       -0.918102    2.497493    0.810223
     13          1           0       -2.053324    1.402707    0.696149
     14          8           0        2.126838    0.994481   -0.793998
     15          1           0        2.350051    1.081297   -1.741724
     16          1           0        2.928875    0.676690   -0.333009
 ---------------------------------------------------------------------

 SCF Done:  E(RHF) =  -236.513887428     A.U. after   14 cycles
 E2 =    -0.7799030069D+00 EUMP2 =    -0.23729379043500D+03
 E2 =    -0.7799030069D+00 EUMP2 =    -0.23729379043500D+03

 The electronic state is 1-A.
 Alpha  occ. eigenvalues --   -5.43645  -3.43328  -3.43278  -3.43183  -1.72483
 Alpha  occ. eigenvalues --   -1.71430  -1.69958  -1.69111  -1.68399  -1.08833
 Alpha  occ. eigenvalues --   -1.08244  -1.06607  -1.05077  -1.04386  -1.03898
 Alpha  occ. eigenvalues --   -1.03138  -1.01306  -1.00412  -1.00207  -0.96140
 Alpha  occ. eigenvalues --   -0.95482  -0.91017  -0.89819  -0.88324  -0.86553
 Alpha  occ. eigenvalues --   -0.85513  -0.84379  -0.83969  -0.82168
 Alpha virt. eigenvalues --   -0.28725  -0.19154  -0.18503  -0.17364  -0.17012
 Alpha virt. eigenvalues --   -0.12270  -0.10455  -0.10186  -0.08560  -0.07395
 Alpha virt. eigenvalues --   -0.06455  -0.05918  -0.04215  -0.03554  -0.03024

 Mulliken charges:
               1
     1  Hg   1.375415
     2  O   -0.968550
     3  H    0.519567
     4  H    0.515955
     5  O   -0.945138
     6  H    0.524932
     7  H    0.527880
     8  O   -0.973467
     9  H    0.594586
    10  H    0.537529
    11  O   -0.959939
    12  H    0.527090
    13  H    0.546297
    14  O   -0.908943
    15  H    0.540737
    16  H    0.546051
 Sum of Mulliken charges =   2.00000

 Dipole moment (field-independent basis, Debye):
    X=             -3.0963    Y=             -0.2177    Z=             -1.1360  Tot=              3.3053
 Quadrupole moment (field-independent basis, Debye-Ang):
   XX=             14.7901   YY=            -34.0581   ZZ=            -29.8851
   XY=             -4.1416   XZ=              1.9766   YZ=             -1.8574

  Exact polarizability:  57.004   0.945  44.319  -0.227   0.393  42.460
 Approx polarizability:  32.358  -0.333  29.047   0.070   0.353  29.340

 ******    6 imaginary frequencies (negative Signs) ******

                      1                      2                      3
                      A                      A                      A
 Frequencies --   -336.6836              -266.9018              -191.8383
 Red. masses --      1.0266                 1.0328                 1.0569
 Frc consts  --      0.0686                 0.0433                 0.0229
 IR Inten    --     27.7012                18.2148                47.9723

                      4                      5                      6
                      A                      A                      A
 Frequencies --    -87.2573               -66.2779               -40.3885
 Red. masses --      2.6870                 3.0454                 4.1073
 Frc consts  --      0.0121                 0.0079                 0.0039
 IR Inten    --      6.7868                13.4960                10.0998

                      7                      8                      9
                      A                      A                      A
 Frequencies --     58.9458                69.9953               104.5748
 Red. masses --      4.7057                 5.0938                 6.1075
 Frc consts  --      0.0096                 0.0147                 0.0394
 IR Inten    --     11.2982                 1.8617                 1.0477

                     10                     11                     12
                      A                      A                      A
 Frequencies --    131.5307               177.9949               266.2415
 Red. masses --      4.5993                 1.1602                 5.5522
 Frc consts  --      0.0469                 0.0217                 0.2319
 IR Inten    --      3.3610                63.4806                26.9311

                     13                     14                     15
                      A                      A                      A
 Frequencies --    280.9010               304.1200               333.5723
 Red. masses --      6.0832                 1.2776                 4.7625
 Frc consts  --      0.2828                 0.0696                 0.3122
 IR Inten    --     13.3636                63.7267                32.2044

                     16                     17                     18
                      A                      A                      A
 Frequencies --    377.3421               444.9559               481.2265
 Red. masses --      6.9278                 3.2045                 1.2885
 Frc consts  --      0.5812                 0.3738                 0.1758
 IR Inten    --     13.4537                63.7648                33.7372

                     19                     20                     21
                      A                      A                      A
 Frequencies --    494.3638               592.7474               633.7149
 Red. masses --      1.4190                 1.1366                 1.1539
 Frc consts  --      0.2043                 0.2353                 0.2730
 IR Inten    --     40.0041                46.6081                65.9372

                     22                     23                     24
                      A                      A                      A
 Frequencies --    667.2421               678.7089               712.3167
 Red. masses --      1.1600                 1.1421                 1.1217
 Frc consts  --      0.3043                 0.3100                 0.3353
 IR Inten    --    398.1887               380.0135               247.1667

                     25                     26                     27
                      A                      A                      A
 Frequencies --    790.8702               863.7457              1152.6418
 Red. masses --      1.1006                 1.0987                 1.0600
 Frc consts  --      0.4056                 0.4829                 0.8297
 IR Inten    --    498.8192               233.9891               257.4088

                     28                     29                     30
                      A                      A                      A
 Frequencies --   1717.5717              1719.9464              1735.5888
 Red. masses --      1.0880                 1.0820                 1.0857
 Frc consts  --      1.8910                 1.8859                 1.9269
 IR Inten    --    162.1703                76.6020               144.5462

                     31                     32                     33
                      A                      A                      A
 Frequencies --   1740.1854              1777.6264              2806.4640
 Red. masses --      1.0879                 1.0673                 1.0675
 Frc consts  --      1.9409                 1.9872                 4.9536
 IR Inten    --    182.6634                53.8623              1547.0718

                     34                     35                     36
                      A                      A                      A
 Frequencies --   3549.4362              3646.5858              3673.2212
 Red. masses --      1.0512                 1.0401                 1.0404
 Frc consts  --      7.8026                 8.1488                 8.2709
 IR Inten    --    365.3195               135.0290                94.4079

                     37                     38                     39
                      A                      A                      A
 Frequencies --   3679.2818              3723.9213              3756.9176
 Red. masses --      1.0407                 1.0660                 1.0852
 Frc consts  --      8.3007                 8.7099                 9.0244
 IR Inten    --     44.0726               190.9749               218.4888

                     40                     41                     42
                      A                      A                      A
 Frequencies --   3767.3516              3774.5683              3775.1158
 Red. masses --      1.0743                 1.0830                 1.0838
 Frc consts  --      8.9837                 9.0906                 9.1005
 IR Inten    --    188.9533               169.8018               187.4008

 - Thermochemistry -
 -------------------
 Temperature   298.150 Kelvin.  Pressure   1.00000 Atm.
 Atom     1 has atomic number 80 and mass 201.97060

 Molecular mass:   292.02342 amu.
 Principal axes and moments of inertia in atomic units:
                           1         2         3
     Eigenvalues --   693.013891944.153312038.15145
           X            0.99997  -0.00166   0.00773
           Y            0.00200   0.99907  -0.04316
           Z           -0.00765   0.04317   0.99904
 This molecule is an asymmetric top.
 Rotational symmetry number  1.
 Warning -- assumption of classical behavior for rotation
           may cause significant error
 Rotational temperatures (Kelvin)      0.12498     0.04455     0.04250
 Rotational constants (GHZ):           2.60419     0.92829     0.88548
    6 imaginary frequencies ignored.
 Zero-point vibrational energy     325752.3 (Joules/Mol)
                                   77.85667 (Kcal/Mol)
 Warning -- explicit consideration of  14 degrees of freedom as
           vibrations may cause significant error
 Vibrational temperatures:     84.81   100.71   150.46   189.24   256.10
          (Kelvin)            383.06   404.15   437.56   479.94   542.91
                              640.19   692.38   711.28   852.83   911.77
                              960.01   976.51  1024.86  1137.89  1242.74
                             1658.39  2471.20  2474.62  2497.13  2503.74
                             2557.61  4037.88  5106.85  5246.62  5284.95
                             5293.67  5357.89  5405.37  5420.38  5430.76
                             5431.55

 Zero-point correction=                           0.124073 (Hartree/Particle)
 Thermal correction to Energy=                    0.134118
 Thermal correction to Enthalpy=                  0.135062
 Thermal correction to Gibbs Free Energy=         0.087122
 Sum of electronic and zero-point Energies=           -237.169718
 Sum of electronic and thermal Energies=              -237.159673
 Sum of electronic and thermal Enthalpies=            -237.158728
 Sum of electronic and thermal Free Energies=         -237.206668

                     E (Thermal)             CV                S
                      KCal/Mol        Cal/Mol-Kelvin    Cal/Mol-Kelvin
 Total                   84.160             33.997            100.898
 Electronic               0.000              0.000              0.000
 Translational            0.889              2.981             42.912
 Rotational               0.889              2.981             29.397
 Vibrational             82.383             28.036             28.588
 Vibration     1          0.596              1.974              4.492
 Vibration     2          0.598              1.968              4.153
 Vibration     3          0.605              1.946              3.367
 Vibration     4          0.612              1.922              2.924
 Vibration     5          0.628              1.869              2.349
 Vibration     6          0.672              1.735              1.620
 Vibration     7          0.681              1.709              1.528
 Vibration     8          0.695              1.666              1.394
 Vibration     9          0.715              1.608              1.243
 Vibration    10          0.748              1.518              1.050
 Vibration    11          0.804              1.372              0.811
 Vibration    12          0.838              1.292              0.707
 Vibration    13          0.850              1.263              0.672
 Vibration    14          0.950              1.047              0.462

 Normal termination of Gaussian 16 at Wed May 11 21:37:04 2022.
