 Gaussian 16, Revision A.03,
 Gaussian 16:  ES64L-G16RevA.03 25-Dec-2016

 ------------------------
 #p MP2(full) SDDAll freq
 ------------------------

 file 'w5s2.log' Now we use Def2-QZVPPD, but it was opt at: ---' #p ZOR
 A-SR+SO PBE QZ4P'---
 ----------------------------------------------------------------------
 Symbolic Z-matrix:
 Charge =  2 Multiplicity = 1

                         Standard orientation:
 ---------------------------------------------------------------------
 Center     Atomic      Atomic             Coordinates (Angstroms)
 Number     Number       Type             X           Y           Z
 ---------------------------------------------------------------------
      1         80           0       -0.523357   -0.279957    0.061822
      2          1           0        6.076880    1.062421    0.679905
      3          8           0        5.344070    1.320061    0.091533
      4          1           0        5.714007    1.891306   -0.606691
      5          1           0       -2.869749   -0.942157   -0.815372
      6          8           0       -2.423592   -0.094048   -0.635375
      7          1           0       -3.155111    0.700643   -0.298425
      8          1           0        4.488861    0.419292   -0.283294
      9          8           0        3.684039   -0.296434   -0.657000
     10          1           0        4.015893   -1.197153   -0.825452
     11          1           0       -4.296117    2.238368   -0.661174
     12          8           0       -3.931770    1.689481    0.058207
     13          1           0       -4.660228    1.504988    0.679513
     14          1           0        2.814413   -0.335805   -0.137153
     15          8           0        1.369440   -0.406972    0.613015
     16          1           0        1.402208   -0.642066    1.559353
 ---------------------------------------------------------------------

 SCF Done:  E(RHF) =  -236.501859548     A.U. after   14 cycles
 E2 =    -0.7946849400D+00 EUMP2 =    -0.23729654448798D+03
 E2 =    -0.7946849400D+00 EUMP2 =    -0.23729654448798D+03

 The electronic state is 1-A.
 Alpha  occ. eigenvalues --   -5.42371  -3.41898  -3.41328  -3.41315  -1.71278
 Alpha  occ. eigenvalues --   -1.70275  -1.67546  -1.66578  -1.59981  -1.07934
 Alpha  occ. eigenvalues --   -1.07225  -1.05728  -1.04639  -1.03580  -1.02749
 Alpha  occ. eigenvalues --   -1.01266  -0.99045  -0.98023  -0.98021  -0.92253
 Alpha  occ. eigenvalues --   -0.90059  -0.88510  -0.86631  -0.85180  -0.82976
 Alpha  occ. eigenvalues --   -0.82490  -0.82200  -0.77935  -0.77356
 Alpha virt. eigenvalues --   -0.23812  -0.18567  -0.18334  -0.15112  -0.13914
 Alpha virt. eigenvalues --   -0.10077  -0.09437  -0.08080  -0.06873  -0.06129
 Alpha virt. eigenvalues --   -0.05387  -0.04470  -0.04049  -0.03245  -0.01727

 Mulliken charges:
               1
     1  Hg   1.318140
     2  H    0.517999
     3  O   -0.887562
     4  H    0.519652
     5  H    0.535431
     6  O   -1.056548
     7  H    0.638907
     8  H    0.621882
     9  O   -0.927895
    10  H    0.523166
    11  H    0.526421
    12  O   -0.899517
    13  H    0.523322
    14  H    0.638759
    15  O   -1.086815
    16  H    0.494658
 Sum of Mulliken charges =   2.00000

 Dipole moment (field-independent basis, Debye):
    X=              4.4214    Y=              1.3026    Z=              0.0152  Tot=              4.6093
 Quadrupole moment (field-independent basis, Debye-Ang):
   XX=            117.1836   YY=            -34.4673   ZZ=            -44.4839
   XY=             -4.2645   XZ=             -0.0514   YZ=             -2.5219

  Exact polarizability:  74.180  -2.381  43.916   3.293  -0.290  39.969
 Approx polarizability:  39.652  -0.525  30.441   0.984  -0.797  29.182

 ******    5 imaginary frequencies (negative Signs) ******

                      1                      2                      3
                      A                      A                      A
 Frequencies --   -306.9458              -295.2999              -181.5629
 Red. masses --      1.0317                 1.0274                 1.3079
 Frc consts  --      0.0573                 0.0528                 0.0254
 IR Inten    --     39.0191                79.9549                50.3088

                      4                      5                      6
                      A                      A                      A
 Frequencies --   -104.4344               -68.2831                28.0326
 Red. masses --      2.8109                 3.5194                 5.3119
 Frc consts  --      0.0181                 0.0097                 0.0025
 IR Inten    --      1.3481                15.3509                10.1235

                      7                      8                      9
                      A                      A                      A
 Frequencies --     45.9975                98.5186               117.7794
 Red. masses --      5.4460                 5.1284                 5.3602
 Frc consts  --      0.0068                 0.0293                 0.0438
 IR Inten    --     16.5278                11.4456                28.3267

                     10                     11                     12
                      A                      A                      A
 Frequencies --    206.6154               245.0563               311.0134
 Red. masses --      3.3875                 3.6135                 1.1656
 Frc consts  --      0.0852                 0.1279                 0.0664
 IR Inten    --     57.7137               143.1343               120.2355

                     13                     14                     15
                      A                      A                      A
 Frequencies --    333.6854               379.4699               460.0967
 Red. masses --      1.1467                 3.5784                 1.3913
 Frc consts  --      0.0752                 0.3036                 0.1735
 IR Inten    --     76.4224               223.0166                79.9241

                     16                     17                     18
                      A                      A                      A
 Frequencies --    464.4497               481.6131               579.5160
 Red. masses --      1.5339                 2.5483                 1.0745
 Frc consts  --      0.1950                 0.3483                 0.2126
 IR Inten    --    190.7988               271.5033               134.0789

                     19                     20                     21
                      A                      A                      A
 Frequencies --    613.5136               672.6203               694.4652
 Red. masses --      4.6967                 2.4016                 1.9550
 Frc consts  --      1.0416                 0.6402                 0.5555
 IR Inten    --    222.3466               344.1864                99.2026

                     22                     23                     24
                      A                      A                      A
 Frequencies --    708.4846               971.3653               981.4344
 Red. masses --      1.1916                 1.0890                 1.0447
 Frc consts  --      0.3524                 0.6054                 0.5929
 IR Inten    --    356.2263                99.2895               156.8579

                     25                     26                     27
                      A                      A                      A
 Frequencies --   1154.0714              1213.9129              1322.7488
 Red. masses --      1.0655                 1.1293                 1.1729
 Frc consts  --      0.8361                 0.9804                 1.2091
 IR Inten    --     70.9684              3005.8896              3017.2999

                     28                     29                     30
                      A                      A                      A
 Frequencies --   1480.6601              1561.2119              1717.3494
 Red. masses --      1.0544                 1.0687                 1.0753
 Frc consts  --      1.3620                 1.5347                 1.8686
 IR Inten    --    479.4239               576.8354               671.5322

                     31                     32                     33
                      A                      A                      A
 Frequencies --   1720.0546              1786.5632              1794.1470
 Red. masses --      1.0783                 1.0687                 1.0602
 Frc consts  --      1.8796                 2.0098                 2.0108
 IR Inten    --    243.9560               354.4548               129.1140

                     34                     35                     36
                      A                      A                      A
 Frequencies --   1831.1796              3023.3536              3687.9234
 Red. masses --      1.0941                 1.0658                 1.0404
 Frc consts  --      2.1617                 5.7401                 8.3374
 IR Inten    --    726.5767              1970.8998                99.8665

                     37                     38                     39
                      A                      A                      A
 Frequencies --   3693.6153              3710.9611              3729.5236
 Red. masses --      1.0405                 1.0662                 1.0658
 Frc consts  --      8.3638                 8.6512                 8.7340
 IR Inten    --     77.6217               117.4576               159.3948

                     40                     41                     42
                      A                      A                      A
 Frequencies --   3745.7322              3791.7352              3798.0242
 Red. masses --      1.0653                 1.0844                 1.0847
 Frc consts  --      8.8065                 9.1861                 9.2186
 IR Inten    --    192.6057               202.3282               211.3898

 - Thermochemistry -
 -------------------
 Temperature   298.150 Kelvin.  Pressure   1.00000 Atm.
 Atom     1 has atomic number 80 and mass 201.97060

 Molecular mass:   292.02342 amu.
 Principal axes and moments of inertia in atomic units:
                           1         2         3
     Eigenvalues --   479.311444637.344934930.73474
           X            0.99998  -0.00688   0.00146
           Y            0.00687   0.99998   0.00151
           Z           -0.00147  -0.00150   1.00000
 This molecule is an asymmetric top.
 Rotational symmetry number  1.
 Warning -- assumption of classical behavior for rotation
           may cause significant error
 Rotational temperatures (Kelvin)      0.18070     0.01868     0.01757
 Rotational constants (GHZ):           3.76528     0.38918     0.36602
    5 imaginary frequencies ignored.
 Zero-point vibrational energy     317946.4 (Joules/Mol)
                                   75.99102 (Kcal/Mol)
 Warning -- explicit consideration of  14 degrees of freedom as
           vibrations may cause significant error
 Vibrational temperatures:     40.33    66.18   141.75   169.46   297.27
          (Kelvin)            352.58   447.48   480.10   545.97   661.98
                              668.24   692.93   833.79   882.71   967.75
                              999.18  1019.35  1397.58  1412.07  1660.45
                             1746.55  1903.14  2130.34  2246.24  2470.88
                             2474.77  2570.47  2581.38  2634.66  4349.93
                             5306.10  5314.29  5339.25  5365.95  5389.27
                             5455.46  5464.51

 Zero-point correction=                           0.121099 (Hartree/Particle)
 Thermal correction to Energy=                    0.130817
 Thermal correction to Enthalpy=                  0.131762
 Thermal correction to Gibbs Free Energy=         0.082738
 Sum of electronic and zero-point Energies=           -237.175445
 Sum of electronic and thermal Energies=              -237.165727
 Sum of electronic and thermal Enthalpies=            -237.164783
 Sum of electronic and thermal Free Energies=         -237.213806

                     E (Thermal)             CV                S
                      KCal/Mol        Cal/Mol-Kelvin    Cal/Mol-Kelvin
 Total                   82.089             32.420            103.178
 Electronic               0.000              0.000              0.000
 Translational            0.889              2.981             42.912
 Rotational               0.889              2.981             30.772
 Vibrational             80.312             26.459             29.494
 Vibration     1          0.593              1.984              5.964
 Vibration     2          0.595              1.979              4.982
 Vibration     3          0.604              1.950              3.483
 Vibration     4          0.608              1.935              3.136
 Vibration     5          0.641              1.830              2.073
 Vibration     6          0.660              1.771              1.766
 Vibration     7          0.700              1.653              1.357
 Vibration     8          0.715              1.608              1.242
 Vibration     9          0.749              1.514              1.041
 Vibration    10          0.818              1.339              0.766
 Vibration    11          0.822              1.329              0.753
 Vibration    12          0.838              1.291              0.706
 Vibration    13          0.936              1.076              0.486
 Vibration    14          0.973              1.003              0.427

 Normal termination of Gaussian 16 at Wed May 11 21:28:40 2022.
