 Gaussian 16, Revision A.03,
 Gaussian 16:  ES64L-G16RevA.03 25-Dec-2016

 ------------------------
 #p MP2(full) SDDAll freq
 ------------------------

 file 'w5s3.log' Now we use Def2-QZVPPD, but it was opt at: ---' #p ZOR
 A-SR+SO PBE QZ4P'---
 ----------------------------------------------------------------------
 Symbolic Z-matrix:
 Charge =  2 Multiplicity = 1

                         Standard orientation:
 ---------------------------------------------------------------------
 Center     Atomic      Atomic             Coordinates (Angstroms)
 Number     Number       Type             X           Y           Z
 ---------------------------------------------------------------------
      1         80           0        0.183713   -0.013780   -0.133879
      2          8           0        2.137621   -0.109339   -0.608067
      3          1           0        3.097363    0.017038    0.104533
      4          1           0        2.322476    0.070952   -1.548305
      5          8           0       -1.728376    0.024615    0.422173
      6          1           0       -2.297765   -0.877928    0.309082
      7          1           0       -2.271420    0.939225    0.287310
      8          8           0       -2.889847    2.206736    0.176916
      9          1           0       -3.532256    2.392713   -0.530482
     10          1           0       -3.238258    2.623334    0.985336
     11          8           0       -2.953519   -2.127173    0.243295
     12          1           0       -3.315628   -2.504525    1.064798
     13          1           0       -3.595346   -2.325256   -0.461292
     14          8           0        4.046143    0.079139    0.866847
     15          1           0        4.605800    0.878426    0.810777
     16          1           0        4.631861   -0.703368    0.879281
 ---------------------------------------------------------------------

 SCF Done:  E(RHF) =  -236.503758093     A.U. after   14 cycles
 E2 =    -0.7917806559D+00 EUMP2 =    -0.23729553874940D+03
 E2 =    -0.7917806559D+00 EUMP2 =    -0.23729553874940D+03

 The electronic state is 1-A.
 Alpha  occ. eigenvalues --   -5.44092  -3.43637  -3.43094  -3.43063  -1.72956
 Alpha  occ. eigenvalues --   -1.68251  -1.66960  -1.66649  -1.63536  -1.09690
 Alpha  occ. eigenvalues --   -1.07626  -1.07352  -1.06444  -1.01927  -1.01575
 Alpha  occ. eigenvalues --   -1.01528  -1.00305  -0.99772  -0.99769  -0.95336
 Alpha  occ. eigenvalues --   -0.92370  -0.88775  -0.85607  -0.85252  -0.83521
 Alpha  occ. eigenvalues --   -0.83262  -0.81498  -0.80901  -0.80538
 Alpha virt. eigenvalues --   -0.24858  -0.19735  -0.19337  -0.15857  -0.15068
 Alpha virt. eigenvalues --   -0.10948  -0.10220  -0.08480  -0.07598  -0.07050
 Alpha virt. eigenvalues --   -0.06020  -0.05758  -0.04713  -0.02708  -0.02318

 Mulliken charges:
               1
     1  Hg   1.374245
     2  O   -1.103087
     3  H    0.651203
     4  H    0.536326
     5  O   -1.125886
     6  H    0.634320
     7  H    0.633930
     8  O   -0.927526
     9  H    0.512761
    10  H    0.515965
    11  O   -0.927786
    12  H    0.516333
    13  H    0.513405
    14  O   -0.878589
    15  H    0.536620
    16  H    0.537766
 Sum of Mulliken charges =   2.00000

 Dipole moment (field-independent basis, Debye):
    X=              0.0867    Y=              0.8301    Z=             -0.2715  Tot=              0.8777
 Quadrupole moment (field-independent basis, Debye-Ang):
   XX=             64.9775   YY=            -26.7672   ZZ=            -41.9187
   XY=              1.8628   XZ=              0.0962   YZ=             -0.8902

  Exact polarizability:  68.300  -0.084  45.463   0.152  -0.132  40.442
 Approx polarizability:  36.552   0.058  30.370   1.108  -0.252  30.046

 ******    6 imaginary frequencies (negative Signs) ******

                      1                      2                      3
                      A                      A                      A
 Frequencies --   -338.7672              -336.6188              -235.3391
 Red. masses --      1.0116                 1.0329                 1.0591
 Frc consts  --      0.0684                 0.0690                 0.0346
 IR Inten    --      3.4451                50.3949                68.2695

                      4                      5                      6
                      A                      A                      A
 Frequencies --   -100.0810               -60.0907                -6.0705
 Red. masses --      2.4257                 3.0918                 4.8978
 Frc consts  --      0.0143                 0.0066                 0.0001
 IR Inten    --      3.5486                52.8666                10.1028

                      7                      8                      9
                      A                      A                      A
 Frequencies --     52.9297                55.3955               116.0990
 Red. masses --      5.0597                 5.0315                 5.5522
 Frc consts  --      0.0084                 0.0091                 0.0441
 IR Inten    --     50.0460                17.4931                 4.5127

                     10                     11                     12
                      A                      A                      A
 Frequencies --    134.0415               293.4784               314.9649
 Red. masses --      5.1054                 4.9272                 1.0857
 Frc consts  --      0.0540                 0.2500                 0.0635
 IR Inten    --     48.7110               119.0077                 4.3709

                     13                     14                     15
                      A                      A                      A
 Frequencies --    325.6732               390.8848               415.8181
 Red. masses --      1.1875                 1.5362                 2.9134
 Frc consts  --      0.0742                 0.1383                 0.2968
 IR Inten    --    118.2767                55.0483               628.7737

                     16                     17                     18
                      A                      A                      A
 Frequencies --    420.5396               445.9160               616.2466
 Red. masses --      4.4442                 1.5131                 1.1667
 Frc consts  --      0.4631                 0.1773                 0.2610
 IR Inten    --    199.2650                26.5594               683.1955

                     19                     20                     21
                      A                      A                      A
 Frequencies --    638.6245               642.5791               684.3590
 Red. masses --      1.7425                 1.1029                 2.5873
 Frc consts  --      0.4187                 0.2683                 0.7140
 IR Inten    --    474.2261              2832.4614               284.9438

                     22                     23                     24
                      A                      A                      A
 Frequencies --    708.6883               744.9062              1096.0659
 Red. masses --      1.8216                 2.2048                 1.1251
 Frc consts  --      0.5390                 0.7208                 0.7964
 IR Inten    --    200.9669               384.9754               928.7552

                     25                     26                     27
                      A                      A                      A
 Frequencies --   1255.2857              1330.2180              1374.5231
 Red. masses --      1.0459                 1.0355                 1.0621
 Frc consts  --      0.9710                 1.0795                 1.1823
 IR Inten    --     51.8679                 3.6675               305.7959

                     28                     29                     30
                      A                      A                      A
 Frequencies --   1572.0184              1670.9495              1675.4988
 Red. masses --      1.0604                 1.0649                 1.0624
 Frc consts  --      1.5440                 1.7518                 1.7573
 IR Inten    --    347.8320               324.3810                29.1167

                     31                     32                     33
                      A                      A                      A
 Frequencies --   1731.2620              1774.8542              1787.2575
 Red. masses --      1.1033                 1.0661                 1.0783
 Frc consts  --      1.9483                 1.9786                 2.0293
 IR Inten    --      7.7889                71.7827               368.2018

                     34                     35                     36
                      A                      A                      A
 Frequencies --   2069.6561              2151.9655              3659.9445
 Red. masses --      1.1493                 1.0566                 1.0402
 Frc consts  --      2.9006                 2.8829                 8.2097
 IR Inten    --   3740.4456              2775.9720               128.3185

                     37                     38                     39
                      A                      A                      A
 Frequencies --   3707.3391              3708.4867              3728.6935
 Red. masses --      1.0405                 1.0406                 1.0663
 Frc consts  --      8.4259                 8.4316                 8.7348
 IR Inten    --     45.9663                88.4930               161.4209

                     40                     41                     42
                      A                      A                      A
 Frequencies --   3761.3309              3814.2271              3815.2892
 Red. masses --      1.0851                 1.0842                 1.0844
 Frc consts  --      9.0445                 9.2934                 9.3003
 IR Inten    --    241.5922                55.3908               290.3751

 - Thermochemistry -
 -------------------
 Temperature   298.150 Kelvin.  Pressure   1.00000 Atm.
 Atom     1 has atomic number 80 and mass 201.97060

 Molecular mass:   292.02342 amu.
 Principal axes and moments of inertia in atomic units:
                           1         2         3
     Eigenvalues --   751.167642894.040983414.34668
           X            1.00000   0.00111   0.00097
           Y           -0.00111   1.00000  -0.00234
           Z           -0.00097   0.00234   1.00000
 This molecule is an asymmetric top.
 Rotational symmetry number  1.
 Warning -- assumption of classical behavior for rotation
           may cause significant error
 Rotational temperatures (Kelvin)      0.11531     0.02993     0.02537
 Rotational constants (GHZ):           2.40258     0.62361     0.52858
    6 imaginary frequencies ignored.
 Zero-point vibrational energy     315132.3 (Joules/Mol)
                                   75.31843 (Kcal/Mol)
 Warning -- explicit consideration of  12 degrees of freedom as
           vibrations may cause significant error
 Vibrational temperatures:     76.15    79.70   167.04   192.86   422.25
          (Kelvin)            453.16   468.57   562.40   598.27   605.06
                              641.57   886.64   918.84   924.53   984.64
                             1019.64  1071.75  1576.99  1806.08  1913.89
                             1977.63  2261.78  2404.12  2410.67  2490.90
                             2553.62  2571.46  2977.77  3096.20  5265.84
                             5334.03  5335.69  5364.76  5411.72  5487.82
                             5489.35

 Zero-point correction=                           0.120028 (Hartree/Particle)
 Thermal correction to Energy=                    0.129101
 Thermal correction to Enthalpy=                  0.130046
 Thermal correction to Gibbs Free Energy=         0.083204
 Sum of electronic and zero-point Energies=           -237.175511
 Sum of electronic and thermal Energies=              -237.166437
 Sum of electronic and thermal Enthalpies=            -237.165493
 Sum of electronic and thermal Free Energies=         -237.212334

                     E (Thermal)             CV                S
                      KCal/Mol        Cal/Mol-Kelvin    Cal/Mol-Kelvin
 Total                   81.012             30.700             98.586
 Electronic               0.000              0.000              0.000
 Translational            0.889              2.981             42.912
 Rotational               0.889              2.981             30.385
 Vibrational             79.235             24.739             25.288
 Vibration     1          0.596              1.976              4.705
 Vibration     2          0.596              1.975              4.615
 Vibration     3          0.608              1.936              3.164
 Vibration     4          0.613              1.919              2.887
 Vibration     5          0.688              1.686              1.454
 Vibration     6          0.702              1.645              1.336
 Vibration     7          0.710              1.624              1.281
 Vibration     8          0.759              1.490              0.997
 Vibration     9          0.779              1.436              0.906
 Vibration    10          0.783              1.426              0.890
 Vibration    11          0.805              1.370              0.808
 Vibration    12          0.976              0.998              0.423

 Normal termination of Gaussian 16 at Wed May 11 21:29:40 2022.
