 Gaussian 16, Revision A.03,
 Gaussian 16:  ES64L-G16RevA.03 25-Dec-2016

 ------------------------
 #p MP2(full) SDDAll freq
 ------------------------

 file 'w5s4.log' Now we use Def2-QZVPPD, but it was opt at: ---' #p ZOR
 A-SR+SO PBE QZ4P'---
 ----------------------------------------------------------------------
 Symbolic Z-matrix:
 Charge =  2 Multiplicity = 1

                         Standard orientation:
 ---------------------------------------------------------------------
 Center     Atomic      Atomic             Coordinates (Angstroms)
 Number     Number       Type             X           Y           Z
 ---------------------------------------------------------------------
      1         80           0       -0.182963   -0.027413   -0.135241
      2          8           0        1.728164    0.044928    0.419692
      3          1           0        2.258561    0.965221    0.276390
      4          1           0        2.311092   -0.850716    0.321803
      5          8           0       -2.139397   -0.143464   -0.594775
      6          1           0       -3.104137    0.024556    0.111467
      7          1           0       -2.327456   -0.042108   -1.545970
      8          8           0        2.982435   -2.092414    0.268911
      9          1           0        3.347223   -2.458065    1.094491
     10          1           0        3.630056   -2.285853   -0.431636
     11          8           0       -4.048632    0.132978    0.864943
     12          1           0       -4.607049    0.927250    0.756041
     13          1           0       -4.635127   -0.646608    0.922318
     14          8           0        2.860156    2.240494    0.155066
     15          1           0        3.204133    2.668866    0.959167
     16          1           0        3.497927    2.430296   -0.555467
 ---------------------------------------------------------------------

 SCF Done:  E(RHF) =  -236.503908056     A.U. after   14 cycles
 E2 =    -0.7917390160D+00 EUMP2 =    -0.23729564707187D+03
 E2 =    -0.7917390160D+00 EUMP2 =    -0.23729564707187D+03

 The electronic state is 1-A.
 Alpha  occ. eigenvalues --   -5.44032  -3.43575  -3.43033  -3.43006  -1.73125
 Alpha  occ. eigenvalues --   -1.68223  -1.66939  -1.66512  -1.63509  -1.09692
 Alpha  occ. eigenvalues --   -1.07563  -1.07312  -1.06597  -1.01947  -1.01551
 Alpha  occ. eigenvalues --   -1.01519  -1.00215  -0.99712  -0.99710  -0.95266
 Alpha  occ. eigenvalues --   -0.92361  -0.88873  -0.85593  -0.85224  -0.83410
 Alpha  occ. eigenvalues --   -0.83205  -0.81481  -0.80873  -0.80516
 Alpha virt. eigenvalues --   -0.24819  -0.19692  -0.19296  -0.15849  -0.15051
 Alpha virt. eigenvalues --   -0.10986  -0.10201  -0.08448  -0.07599  -0.07013
 Alpha virt. eigenvalues --   -0.06052  -0.05709  -0.04719  -0.02683  -0.02283

 Mulliken charges:
               1
     1  Hg   1.376445
     2  O   -1.127486
     3  H    0.634220
     4  H    0.634524
     5  O   -1.107419
     6  H    0.651838
     7  H    0.536126
     8  O   -0.927476
     9  H    0.516261
    10  H    0.513197
    11  O   -0.876278
    12  H    0.537019
    13  H    0.538121
    14  O   -0.927657
    15  H    0.515872
    16  H    0.512693
 Sum of Mulliken charges =   2.00000

 Dipole moment (field-independent basis, Debye):
    X=             -0.1466    Y=              0.8660    Z=             -0.2930  Tot=              0.9259
 Quadrupole moment (field-independent basis, Debye-Ang):
   XX=             65.3233   YY=            -26.8444   ZZ=            -41.8256
   XY=             -1.5362   XZ=              0.0639   YZ=             -0.8966

  Exact polarizability:  68.355   0.045  45.449  -0.161  -0.097  40.444
 Approx polarizability:  36.580  -0.113  30.317  -1.099  -0.202  30.075

 ******    6 imaginary frequencies (negative Signs) ******

                      1                      2                      3
                      A                      A                      A
 Frequencies --   -339.1892              -337.1335              -245.4606
 Red. masses --      1.0113                 1.0332                 1.0539
 Frc consts  --      0.0686                 0.0692                 0.0374
 IR Inten    --      2.6541                51.4726                70.2969

                      4                      5                      6
                      A                      A                      A
 Frequencies --   -103.3042               -60.6434                -6.1548
 Red. masses --      2.4142                 3.0773                 4.8729
 Frc consts  --      0.0152                 0.0067                 0.0001
 IR Inten    --      2.6529                52.7590                10.3641

                      7                      8                      9
                      A                      A                      A
 Frequencies --     51.9991                55.0100               115.9113
 Red. masses --      4.9626                 5.1043                 5.5369
 Frc consts  --      0.0079                 0.0091                 0.0438
 IR Inten    --     63.0027                 8.1148                 5.0644

                     10                     11                     12
                      A                      A                      A
 Frequencies --    133.2964               293.3151               313.9081
 Red. masses --      5.1090                 4.9523                 1.0901
 Frc consts  --      0.0535                 0.2510                 0.0633
 IR Inten    --     51.8797               117.4797                10.8623

                     13                     14                     15
                      A                      A                      A
 Frequencies --    321.2154               389.8543               420.2925
 Red. masses --      1.1746                 1.5356                 4.0686
 Frc consts  --      0.0714                 0.1375                 0.4234
 IR Inten    --    111.0401                54.7470               190.0883

                     16                     17                     18
                      A                      A                      A
 Frequencies --    421.7463               441.0665               616.0031
 Red. masses --      2.6775                 1.7008                 1.1664
 Frc consts  --      0.2806                 0.1949                 0.2608
 IR Inten    --    575.8378                25.1444               680.4498

                     19                     20                     21
                      A                      A                      A
 Frequencies --    627.5369               639.2754               684.0521
 Red. masses --      1.1617                 1.6894                 2.5558
 Frc consts  --      0.2695                 0.4068                 0.7046
 IR Inten    --   3027.0271               458.4217               146.3021

                     22                     23                     24
                      A                      A                      A
 Frequencies --    707.1299               750.6213              1094.9721
 Red. masses --      1.6764                 2.3155                 1.1202
 Frc consts  --      0.4939                 0.7687                 0.7913
 IR Inten    --    205.3465               440.8958               898.2608

                     25                     26                     27
                      A                      A                      A
 Frequencies --   1255.4721              1329.7426              1374.4659
 Red. masses --      1.0459                 1.0356                 1.0622
 Frc consts  --      0.9713                 1.0789                 1.1823
 IR Inten    --     51.8970                 2.9436               306.8887

                     28                     29                     30
                      A                      A                      A
 Frequencies --   1579.0640              1666.8950              1675.5163
 Red. masses --      1.0614                 1.0639                 1.0625
 Frc consts  --      1.5593                 1.7417                 1.7574
 IR Inten    --    362.6712               311.6220                26.5150

                     31                     32                     33
                      A                      A                      A
 Frequencies --   1731.3823              1774.9038              1787.3770
 Red. masses --      1.1030                 1.0660                 1.0787
 Frc consts  --      1.9482                 1.9786                 2.0304
 IR Inten    --      7.0307                72.5864               370.5750

                     34                     35                     36
                      A                      A                      A
 Frequencies --   2072.0240              2154.9067              3663.9522
 Red. masses --      1.1488                 1.0570                 1.0403
 Frc consts  --      2.9058                 2.8918                 8.2279
 IR Inten    --   3734.0911              2781.0285               130.3794

                     37                     38                     39
                      A                      A                      A
 Frequencies --   3707.7031              3708.7649              3730.9424
 Red. masses --      1.0405                 1.0406                 1.0664
 Frc consts  --      8.4275                 8.4328                 8.7457
 IR Inten    --     44.3491                89.1953               160.8539

                     40                     41                     42
                      A                      A                      A
 Frequencies --   3764.8926              3814.6745              3815.5020
 Red. masses --      1.0850                 1.0842                 1.0844
 Frc consts  --      9.0613                 9.2955                 9.3013
 IR Inten    --    242.7359                22.7284               322.5637

 - Thermochemistry -
 -------------------
 Temperature   298.150 Kelvin.  Pressure   1.00000 Atm.
 Atom     1 has atomic number 80 and mass 201.97060

 Molecular mass:   292.02342 amu.
 Principal axes and moments of inertia in atomic units:
                           1         2         3
     Eigenvalues --   752.416642895.220003418.03105
           X            1.00000  -0.00108  -0.00088
           Y            0.00108   1.00000  -0.00295
           Z            0.00089   0.00295   1.00000
 This molecule is an asymmetric top.
 Rotational symmetry number  1.
 Warning -- assumption of classical behavior for rotation
           may cause significant error
 Rotational temperatures (Kelvin)      0.11511     0.02992     0.02534
 Rotational constants (GHZ):           2.39859     0.62335     0.52801
    6 imaginary frequencies ignored.
 Zero-point vibrational energy     315128.6 (Joules/Mol)
                                   75.31754 (Kcal/Mol)
 Warning -- explicit consideration of  12 degrees of freedom as
           vibrations may cause significant error
 Vibrational temperatures:     74.82    79.15   166.77   191.78   422.02
          (Kelvin)            451.64   462.16   560.91   604.71   606.80
                              634.60   886.29   902.89   919.77   984.20
                             1017.40  1079.98  1575.42  1806.34  1913.20
                             1977.55  2271.92  2398.29  2410.69  2491.07
                             2553.69  2571.64  2981.18  3100.43  5271.61
                             5334.56  5336.09  5367.99  5416.84  5488.47
                             5489.66

 Zero-point correction=                           0.120026 (Hartree/Particle)
 Thermal correction to Energy=                    0.129117
 Thermal correction to Enthalpy=                  0.130061
 Thermal correction to Gibbs Free Energy=         0.083166
 Sum of electronic and zero-point Energies=           -237.175621
 Sum of electronic and thermal Energies=              -237.166530
 Sum of electronic and thermal Enthalpies=            -237.165586
 Sum of electronic and thermal Free Energies=         -237.212481

                     E (Thermal)             CV                S
                      KCal/Mol        Cal/Mol-Kelvin    Cal/Mol-Kelvin
 Total                   81.022             30.737             98.699
 Electronic               0.000              0.000              0.000
 Translational            0.889              2.981             42.912
 Rotational               0.889              2.981             30.388
 Vibrational             79.245             24.775             25.398
 Vibration     1          0.596              1.977              4.740
 Vibration     2          0.596              1.976              4.629
 Vibration     3          0.608              1.936              3.167
 Vibration     4          0.613              1.920              2.898
 Vibration     5          0.688              1.686              1.455
 Vibration     6          0.702              1.647              1.342
 Vibration     7          0.707              1.633              1.304
 Vibration     8          0.758              1.492              1.001
 Vibration     9          0.783              1.426              0.891
 Vibration    10          0.784              1.423              0.886
 Vibration    11          0.801              1.381              0.823
 Vibration    12          0.976              0.998              0.423

 Normal termination of Gaussian 16 at Wed May 11 21:30:44 2022.
