 Gaussian 16, Revision A.03,
 Gaussian 16:  ES64L-G16RevA.03 25-Dec-2016

 ------------------------
 #p MP2(full) SDDAll freq
 ------------------------

 file 'w5s5.log' Now we use Def2-QZVPPD, but it was opt at: ---' #p ZOR
 A-SR+SO PBE QZ4P'---
 ----------------------------------------------------------------------
 Symbolic Z-matrix:
 Charge =  2 Multiplicity = 1

                         Standard orientation:
 ---------------------------------------------------------------------
 Center     Atomic      Atomic             Coordinates (Angstroms)
 Number     Number       Type             X           Y           Z
 ---------------------------------------------------------------------
      1         80           0        0.026939   -0.290804    0.014168
      2          8           0       -0.338940    2.190990   -0.006977
      3          1           0       -0.124939    2.791771    0.727807
      4          1           0       -0.340440    2.745096   -0.807040
      5          8           0       -1.859637   -0.512813   -0.751718
      6          1           0       -2.799204   -0.115390   -0.237131
      7          1           0       -2.020436   -1.396609   -1.132439
      8          8           0       -3.846454    0.411946    0.311253
      9          1           0       -4.447842   -0.173237    0.808869
     10          1           0       -4.399431    0.968840   -0.268390
     11          8           0        1.925193   -0.267950    0.788523
     12          1           0        2.121239   -1.052743    1.334512
     13          1           0        2.846676    0.039451    0.194170
     14          8           0        3.881123    0.490151   -0.451289
     15          1           0        4.459049    1.108035    0.034749
     16          1           0        4.459909   -0.149487   -0.906886
 ---------------------------------------------------------------------

 SCF Done:  E(RHF) =  -236.500977514     A.U. after   14 cycles
 E2 =    -0.7886995885D+00 EUMP2 =    -0.23728967710218D+03
 E2 =    -0.7886995885D+00 EUMP2 =    -0.23728967710218D+03

 The electronic state is 1-A.
 Alpha  occ. eigenvalues --   -5.43238  -3.42880  -3.42545  -3.42275  -1.71314
 Alpha  occ. eigenvalues --   -1.70847  -1.67390  -1.66505  -1.65906  -1.08786
 Alpha  occ. eigenvalues --   -1.08002  -1.06914  -1.04686  -1.04254  -1.01422
 Alpha  occ. eigenvalues --   -1.00379  -1.00250  -0.99978  -0.98854  -0.95406
 Alpha  occ. eigenvalues --   -0.92686  -0.89215  -0.88018  -0.85702  -0.84153
 Alpha  occ. eigenvalues --   -0.83164  -0.82886  -0.81721  -0.80263
 Alpha virt. eigenvalues --   -0.26097  -0.19941  -0.17555  -0.16533  -0.15482
 Alpha virt. eigenvalues --   -0.11266  -0.10179  -0.08998  -0.07874  -0.06952
 Alpha virt. eigenvalues --   -0.06054  -0.05381  -0.04569  -0.02149  -0.01802

 Mulliken charges:
               1
     1  Hg   1.385270
     2  O   -0.952989
     3  H    0.511317
     4  H    0.510396
     5  O   -1.049910
     6  H    0.636578
     7  H    0.527579
     8  O   -0.893771
     9  H    0.522100
    10  H    0.527832
    11  O   -1.041829
    12  H    0.529266
    13  H    0.634186
    14  O   -0.899383
    15  H    0.529179
    16  H    0.524179
 Sum of Mulliken charges =   2.00000

 Dipole moment (field-independent basis, Debye):
    X=              0.6210    Y=              0.1500    Z=             -0.0912  Tot=              0.6453
 Quadrupole moment (field-independent basis, Debye-Ang):
   XX=             52.6844   YY=            -26.2710   ZZ=            -44.6455
   XY=              1.5267   XZ=              0.6054   YZ=             -0.8920

  Exact polarizability:  66.510   0.088  45.049   0.935   0.007  39.803
 Approx polarizability:  35.335   0.105  30.547  -0.428  -0.143  29.128

 ******    5 imaginary frequencies (negative Signs) ******

                      1                      2                      3
                      A                      A                      A
 Frequencies --   -420.1689              -298.6777              -291.1606
 Red. masses --      1.0142                 1.0407                 1.0406
 Frc consts  --      0.1055                 0.0547                 0.0520
 IR Inten    --      6.9155                56.2134                53.3193

                      4                      5                      6
                      A                      A                      A
 Frequencies --    -94.8042               -89.7527                25.2154
 Red. masses --      2.7641                 2.8441                 5.1771
 Frc consts  --      0.0146                 0.0135                 0.0019
 IR Inten    --     16.9019                 2.7624                24.8798

                      7                      8                      9
                      A                      A                      A
 Frequencies --     43.5569                63.3827               110.9146
 Red. masses --      5.3702                 5.0955                 5.4729
 Frc consts  --      0.0060                 0.0121                 0.0397
 IR Inten    --      4.7481                 5.0083                 0.5248

                     10                     11                     12
                      A                      A                      A
 Frequencies --    125.1095               202.7512               315.5717
 Red. masses --      6.3497                 6.1736                 1.3713
 Frc consts  --      0.0586                 0.1495                 0.0805
 IR Inten    --     17.8198                 1.4011               177.3397

                     13                     14                     15
                      A                      A                      A
 Frequencies --    327.3423               357.1893               371.1759
 Red. masses --      1.1983                 1.6941                 3.1569
 Frc consts  --      0.0756                 0.1273                 0.2563
 IR Inten    --     46.5195               496.3872                 4.6483

                     16                     17                     18
                      A                      A                      A
 Frequencies --    379.5964               479.9227               483.8024
 Red. masses --      1.3595                 1.3956                 1.4600
 Frc consts  --      0.1154                 0.1894                 0.2013
 IR Inten    --    165.4856               108.2474                 5.8174

                     19                     20                     21
                      A                      A                      A
 Frequencies --    550.0754               610.8108               647.9018
 Red. masses --      1.1798                 4.0942                 2.9032
 Frc consts  --      0.2103                 0.9000                 0.7180
 IR Inten    --    377.2556               118.9067               477.4008

                     22                     23                     24
                      A                      A                      A
 Frequencies --    689.2937               696.9855               932.0100
 Red. masses --      1.2075                 1.4208                 1.0481
 Frc consts  --      0.3380                 0.4067                 0.5364
 IR Inten    --    265.5751               329.1219              1178.2913

                     25                     26                     27
                      A                      A                      A
 Frequencies --    956.9294              1182.4870              1298.7867
 Red. masses --      1.0412                 1.2279                 1.1810
 Frc consts  --      0.5617                 1.0116                 1.1738
 IR Inten    --      5.5647              5502.7387               752.9780

                     28                     29                     30
                      A                      A                      A
 Frequencies --   1488.8891              1498.3563              1700.4587
 Red. masses --      1.0531                 1.0516                 1.0759
 Frc consts  --      1.3755                 1.3910                 1.8330
 IR Inten    --    377.6764               195.9647               495.1364

                     31                     32                     33
                      A                      A                      A
 Frequencies --   1707.5240              1728.9602              1784.4237
 Red. masses --      1.0761                 1.0876                 1.0698
 Frc consts  --      1.8486                 1.9155                 2.0069
 IR Inten    --    288.0322                88.6489               511.5478

                     34                     35                     36
                      A                      A                      A
 Frequencies --   1789.4107              3682.9717              3683.4752
 Red. masses --      1.0698                 1.0404                 1.0405
 Frc consts  --      2.0182                 8.3144                 8.3176
 IR Inten    --    152.9323               180.6476                13.9085

                     37                     38                     39
                      A                      A                      A
 Frequencies --   3714.5132              3716.0024              3719.9059
 Red. masses --      1.0412                 1.0643                 1.0654
 Frc consts  --      8.4644                 8.6591                 8.6864
 IR Inten    --     74.3214               135.0357               145.0870

                     40                     41                     42
                      A                      A                      A
 Frequencies --   3785.9880              3786.0634              3823.3384
 Red. masses --      1.0845                 1.0845                 1.0843
 Frc consts  --      9.1588                 9.1591                 9.3385
 IR Inten    --    191.4975               218.1009               147.7971

 - Thermochemistry -
 -------------------
 Temperature   298.150 Kelvin.  Pressure   1.00000 Atm.
 Atom     1 has atomic number 80 and mass 201.97060

 Molecular mass:   292.02342 amu.
 Principal axes and moments of inertia in atomic units:
                           1         2         3
     Eigenvalues --   554.718992600.793012942.93553
           X            1.00000   0.00134   0.00030
           Y           -0.00134   1.00000  -0.00075
           Z           -0.00030   0.00075   1.00000
 This molecule is an asymmetric top.
 Rotational symmetry number  1.
 Warning -- assumption of classical behavior for rotation
           may cause significant error
 Rotational temperatures (Kelvin)      0.15614     0.03330     0.02943
 Rotational constants (GHZ):           3.25343     0.69392     0.61325
    5 imaginary frequencies ignored.
 Zero-point vibrational energy     313787.0 (Joules/Mol)
                                   74.99690 (Kcal/Mol)
 Warning -- explicit consideration of  15 degrees of freedom as
           vibrations may cause significant error
 Vibrational temperatures:     36.28    62.67    91.19   159.58   180.00
          (Kelvin)            291.71   454.04   470.97   513.92   534.04
                              546.15   690.50   696.08   791.44   878.82
                              932.19   991.74  1002.81  1340.95  1376.81
                             1701.34  1868.66  2142.18  2155.80  2446.58
                             2456.75  2487.59  2567.39  2574.56  5298.97
                             5299.70  5344.36  5346.50  5352.11  5447.19
                             5447.30  5500.93

 Zero-point correction=                           0.119515 (Hartree/Particle)
 Thermal correction to Energy=                    0.129984
 Thermal correction to Enthalpy=                  0.130929
 Thermal correction to Gibbs Free Energy=         0.080406
 Sum of electronic and zero-point Energies=           -237.170162
 Sum of electronic and thermal Energies=              -237.159693
 Sum of electronic and thermal Enthalpies=            -237.158749
 Sum of electronic and thermal Free Energies=         -237.209271

                     E (Thermal)             CV                S
                      KCal/Mol        Cal/Mol-Kelvin    Cal/Mol-Kelvin
 Total                   81.566             34.380            106.333
 Electronic               0.000              0.000              0.000
 Translational            0.889              2.981             42.912
 Rotational               0.889              2.981             29.830
 Vibrational             79.789             28.419             33.590
 Vibration     1          0.593              1.985              6.174
 Vibration     2          0.595              1.980              5.090
 Vibration     3          0.597              1.972              4.349
 Vibration     4          0.607              1.940              3.253
 Vibration     5          0.610              1.928              3.020
 Vibration     6          0.639              1.836              2.108
 Vibration     7          0.703              1.644              1.333
 Vibration     8          0.711              1.621              1.273
 Vibration     9          0.732              1.560              1.134
 Vibration    10          0.743              1.531              1.075
 Vibration    11          0.750              1.514              1.041
 Vibration    12          0.836              1.295              0.710
 Vibration    13          0.840              1.286              0.700
 Vibration    14          0.905              1.140              0.544
 Vibration    15          0.970              1.009              0.431

 Normal termination of Gaussian 16 at Wed May 11 21:31:45 2022.
