 Gaussian 16, Revision A.03,
 Gaussian 16:  ES64L-G16RevA.03 25-Dec-2016

 ------------------------
 #p MP2(full) SDDAll freq
 ------------------------

 file 'w5s6.log' Now we use Def2-QZVPPD, but it was opt at: ---' #p ZOR
 A-SR+SO PBE QZ4P'---
 ----------------------------------------------------------------------
 Symbolic Z-matrix:
 Charge =  2 Multiplicity = 1

                         Standard orientation:
 ---------------------------------------------------------------------
 Center     Atomic      Atomic             Coordinates (Angstroms)
 Number     Number       Type             X           Y           Z
 ---------------------------------------------------------------------
      1         80           0        0.883710   -0.150977   -0.002553
      2          8           0       -3.094077   -0.740275    0.854075
      3          1           0       -3.337741   -0.564234    1.780771
      4          1           0       -3.976462   -0.730508    0.156569
      5          8           0       -4.958826   -0.803437   -0.720796
      6          1           0       -5.733506   -0.221248   -0.621923
      7          1           0       -5.290640   -1.692987   -0.941211
      8          8           0       -0.586182    3.098719   -0.119938
      9          1           0       -0.901051    3.568812   -0.910620
     10          1           0       -0.637601    3.742793    0.606793
     11          8           0       -0.924829    0.550858    0.230086
     12          1           0       -0.869256    1.566205    0.103970
     13          1           0       -2.270112   -0.194999    0.589517
     14          8           0        2.772083   -1.046901   -0.229643
     15          1           0        3.458443   -0.854112    0.442085
     16          1           0        3.195739   -1.013266   -1.112021
 ---------------------------------------------------------------------

 SCF Done:  E(RHF) =  -236.488225822     A.U. after   15 cycles
 E2 =    -0.7939554021D+00 EUMP2 =    -0.23728218122388D+03
 E2 =    -0.7939554021D+00 EUMP2 =    -0.23728218122388D+03

 The electronic state is 1-A.
 Alpha  occ. eigenvalues --   -5.43521  -3.43091  -3.42475  -3.42458  -1.75498
 Alpha  occ. eigenvalues --   -1.71177  -1.67295  -1.64126  -1.57570  -1.11091
 Alpha  occ. eigenvalues --   -1.07815  -1.06954  -1.05136  -1.02462  -1.02415
 Alpha  occ. eigenvalues --   -1.00005  -0.99146  -0.99144  -0.98710  -0.93973
 Alpha  occ. eigenvalues --   -0.92971  -0.89156  -0.88323  -0.85165  -0.82613
 Alpha  occ. eigenvalues --   -0.81945  -0.78215  -0.76383  -0.76068
 Alpha virt. eigenvalues --   -0.25867  -0.19716  -0.18994  -0.15753  -0.14806
 Alpha virt. eigenvalues --   -0.10577  -0.08837  -0.08619  -0.07309  -0.06206
 Alpha virt. eigenvalues --   -0.05948  -0.05356  -0.04419  -0.04228  -0.03251

 Mulliken charges:
               1
     1  Hg   1.285820
     2  O   -0.939159
     3  H    0.524585
     4  H    0.623602
     5  O   -0.892667
     6  H    0.515210
     7  H    0.517039
     8  O   -0.943844
     9  H    0.499311
    10  H    0.499094
    11  O   -1.136044
    12  H    0.597738
    13  H    0.644322
    14  O   -0.918558
    15  H    0.561790
    16  H    0.561761
 Sum of Mulliken charges =   2.00000

 Dipole moment (field-independent basis, Debye):
    X=             -6.3094    Y=              1.3216    Z=              0.2456  Tot=              6.4510
 Quadrupole moment (field-independent basis, Debye-Ang):
   XX=             71.1985   YY=            -21.4390   ZZ=            -39.6303
   XY=              0.5051   XZ=             -4.4660   YZ=              1.8698

  Exact polarizability:  68.828  -5.570  47.356  -0.263   1.238  42.200
 Approx polarizability:  38.458  -2.110  31.023   0.474   1.029  30.768

 ******    5 imaginary frequencies (negative Signs) ******

                      1                      2                      3
                      A                      A                      A
 Frequencies --   -384.5741              -319.1241              -292.8242
 Red. masses --      1.0146                 1.0317                 1.0237
 Frc consts  --      0.0884                 0.0619                 0.0517
 IR Inten    --     12.9812                52.0538                46.4305

                      4                      5                      6
                      A                      A                      A
 Frequencies --    -92.9633               -76.1407                19.7240
 Red. masses --      2.5889                 3.2249                 5.1500
 Frc consts  --      0.0132                 0.0110                 0.0012
 IR Inten    --      5.8855                47.3592                11.5213

                      7                      8                      9
                      A                      A                      A
 Frequencies --     33.6608                61.6866               103.5748
 Red. masses --      5.3989                 5.4260                 3.7301
 Frc consts  --      0.0036                 0.0122                 0.0236
 IR Inten    --      5.0349                14.0207                13.2492

                     10                     11                     12
                      A                      A                      A
 Frequencies --    111.7791               209.1457               236.9073
 Red. masses --      5.3133                 4.3292                 1.6876
 Frc consts  --      0.0391                 0.1116                 0.0558
 IR Inten    --      2.6155                76.4501                15.6061

                     13                     14                     15
                      A                      A                      A
 Frequencies --    325.8800               385.0809               459.7511
 Red. masses --      1.1179                 4.1178                 3.4153
 Frc consts  --      0.0699                 0.3598                 0.4253
 IR Inten    --     83.7865                74.8635               379.0684

                     16                     17                     18
                      A                      A                      A
 Frequencies --    471.2619               477.7383               585.6373
 Red. masses --      6.0174                 1.4883                 1.0570
 Frc consts  --      0.7874                 0.2001                 0.2136
 IR Inten    --     31.8341                59.8439               109.7469

                     19                     20                     21
                      A                      A                      A
 Frequencies --    594.1755               675.4633               695.7884
 Red. masses --      1.1632                 1.5822                 2.9463
 Frc consts  --      0.2420                 0.4253                 0.8404
 IR Inten    --    459.1503               289.2884               134.4095

                     22                     23                     24
                      A                      A                      A
 Frequencies --    704.1350               749.2140              1079.9656
 Red. masses --      1.2051                 1.1358                 1.0545
 Frc consts  --      0.3520                 0.3756                 0.7246
 IR Inten    --    346.8422                41.8096               143.3994

                     25                     26                     27
                      A                      A                      A
 Frequencies --   1082.2268              1345.4668              1383.1375
 Red. masses --      1.0611                 1.0993                 1.0656
 Frc consts  --      0.7322                 1.1725                 1.2010
 IR Inten    --    117.0196              1160.5413              1217.1839

                     28                     29                     30
                      A                      A                      A
 Frequencies --   1542.7319              1728.2369              1738.0390
 Red. masses --      1.0718                 1.0747                 1.0884
 Frc consts  --      1.5029                 1.8912                 1.9371
 IR Inten    --    671.1661               330.8195               119.9010

                     31                     32                     33
                      A                      A                      A
 Frequencies --   1747.5860              1797.0092              1837.1868
 Red. masses --      1.0859                 1.0553                 1.1045
 Frc consts  --      1.9540                 2.0079                 2.1964
 IR Inten    --    133.1725               116.6939              1008.7901

                     34                     35                     36
                      A                      A                      A
 Frequencies --   2832.9179              2881.5576              3626.9263
 Red. masses --      1.0713                 1.0694                 1.0405
 Frc consts  --      5.0654                 5.2317                 8.0647
 IR Inten    --   2246.4054              2007.9598               215.6627

                     37                     38                     39
                      A                      A                      A
 Frequencies --   3698.4341              3723.5690              3729.5665
 Red. masses --      1.0406                 1.0404                 1.0859
 Frc consts  --      8.3859                 8.4993                 8.8990
 IR Inten    --     73.2326                35.1838               274.0782

                     40                     41                     42
                      A                      A                      A
 Frequencies --   3749.9371              3803.0665              3832.7965
 Red. masses --      1.0649                 1.0846                 1.0840
 Frc consts  --      8.8228                 9.2424                 9.3822
 IR Inten    --    186.1819               198.4273               137.6022

 - Thermochemistry -
 -------------------
 Temperature   298.150 Kelvin.  Pressure   1.00000 Atm.
 Atom     1 has atomic number 80 and mass 201.97060

 Molecular mass:   292.02342 amu.
 Principal axes and moments of inertia in atomic units:
                           1         2         3
     Eigenvalues --   941.752583513.939684245.63051
           X            0.99996   0.00844  -0.00104
           Y           -0.00844   0.99996   0.00200
           Z            0.00106  -0.00200   1.00000
 This molecule is an asymmetric top.
 Rotational symmetry number  1.
 Warning -- assumption of classical behavior for rotation
           may cause significant error
 Rotational temperatures (Kelvin)      0.09197     0.02465     0.02040
 Rotational constants (GHZ):           1.91636     0.51359     0.42508
    5 imaginary frequencies ignored.
 Zero-point vibrational energy     323356.4 (Joules/Mol)
                                   77.28403 (Kcal/Mol)
 Warning -- explicit consideration of  14 degrees of freedom as
           vibrations may cause significant error
 Vibrational temperatures:     28.38    48.43    88.75   149.02   160.83
          (Kelvin)            300.91   340.86   468.87   554.05   661.48
                              678.04   687.36   842.60   854.89   971.84
                             1001.08  1013.09  1077.95  1553.83  1557.08
                             1935.83  1990.03  2219.65  2486.55  2500.65
                             2514.39  2585.50  2643.30  4075.94  4145.92
                             5218.34  5321.22  5357.39  5366.01  5395.32
                             5471.76  5514.54

 Zero-point correction=                           0.123160 (Hartree/Particle)
 Thermal correction to Energy=                    0.133377
 Thermal correction to Enthalpy=                  0.134322
 Thermal correction to Gibbs Free Energy=         0.083028
 Sum of electronic and zero-point Energies=           -237.159021
 Sum of electronic and thermal Energies=              -237.148804
 Sum of electronic and thermal Enthalpies=            -237.147860
 Sum of electronic and thermal Free Energies=         -237.199153

                     E (Thermal)             CV                S
                      KCal/Mol        Cal/Mol-Kelvin    Cal/Mol-Kelvin
 Total                   83.696             32.899            107.956
 Electronic               0.000              0.000              0.000
 Translational            0.889              2.981             42.912
 Rotational               0.889              2.981             31.019
 Vibrational             81.918             26.938             34.025
 Vibration     1          0.593              1.986              6.662
 Vibration     2          0.594              1.983              5.601
 Vibration     3          0.597              1.973              4.402
 Vibration     4          0.605              1.946              3.386
 Vibration     5          0.607              1.940              3.238
 Vibration     6          0.642              1.827              2.051
 Vibration     7          0.656              1.784              1.826
 Vibration     8          0.710              1.624              1.280
 Vibration     9          0.754              1.502              1.019
 Vibration    10          0.818              1.339              0.767
 Vibration    11          0.828              1.314              0.734
 Vibration    12          0.834              1.299              0.716
 Vibration    13          0.943              1.062              0.475
 Vibration    14          0.952              1.044              0.460

 Normal termination of Gaussian 16 at Wed May 11 21:32:48 2022.
