 Gaussian 16, Revision A.03,
 Gaussian 16:  ES64L-G16RevA.03 25-Dec-2016

 ------------------------
 #p MP2(full) SDDAll freq
 ------------------------

 file 'w5s7.log' Now we use Def2-QZVPPD, but it was opt at: ---' #p ZOR
 A-SR+SO PBE QZ4P'---
 ----------------------------------------------------------------------
 Symbolic Z-matrix:
 Charge =  2 Multiplicity = 1

                         Standard orientation:
 ---------------------------------------------------------------------
 Center     Atomic      Atomic             Coordinates (Angstroms)
 Number     Number       Type             X           Y           Z
 ---------------------------------------------------------------------
      1         80           0        0.123662   -0.069453    0.091549
      2          8           0        1.730438   -1.143506   -1.334766
      3          1           0        2.536864   -1.502251   -0.918901
      4          1           0        1.453614   -1.808844   -1.992340
      5          8           0        1.110824    1.816103   -0.874763
      6          1           0        0.598166    2.629911   -1.041305
      7          1           0        1.598803    1.626063   -1.699250
      8          8           0       -3.820488    0.518618   -0.174627
      9          1           0       -4.386943    0.765877    0.579333
     10          1           0       -4.418217    0.229225   -0.888893
     11          8           0       -1.825231   -0.882903    0.142267
     12          1           0       -2.730368   -0.262183    0.052758
     13          1           0       -1.951933   -1.556560    0.836205
     14          8           0        1.949196    0.232704    1.477211
     15          1           0        1.913602   -0.022254    2.419207
     16          1           0        2.335510    1.129124    1.446700
 ---------------------------------------------------------------------

 SCF Done:  E(RHF) =  -236.512164892     A.U. after   14 cycles
 E2 =    -0.7813013431D+00 EUMP2 =    -0.23729346623512D+03
 E2 =    -0.7813013431D+00 EUMP2 =    -0.23729346623512D+03

 The electronic state is 1-A.
 Alpha  occ. eigenvalues --   -5.43041  -3.42686  -3.42617  -3.42576  -1.70698
 Alpha  occ. eigenvalues --   -1.70409  -1.70167  -1.68831  -1.67133  -1.08052
 Alpha  occ. eigenvalues --   -1.06521  -1.05575  -1.04713  -1.03844  -1.03572
 Alpha  occ. eigenvalues --   -1.02505  -1.02055  -0.99740  -0.99418  -0.96305
 Alpha  occ. eigenvalues --   -0.93281  -0.89788  -0.88838  -0.87167  -0.85943
 Alpha  occ. eigenvalues --   -0.84204  -0.83890  -0.83154  -0.81918
 Alpha virt. eigenvalues --   -0.27806  -0.19403  -0.18669  -0.16964  -0.16400
 Alpha virt. eigenvalues --   -0.10892  -0.10727  -0.09809  -0.08408  -0.07090
 Alpha virt. eigenvalues --   -0.06583  -0.05865  -0.04502  -0.03253  -0.02883

 Mulliken charges:
               1
     1  Hg   1.375616
     2  O   -0.942237
     3  H    0.523012
     4  H    0.522435
     5  O   -0.935983
     6  H    0.528559
     7  H    0.533864
     8  O   -0.908698
     9  H    0.517045
    10  H    0.521366
    11  O   -1.025146
    12  H    0.626371
    13  H    0.526106
    14  O   -0.926633
    15  H    0.529950
    16  H    0.534374
 Sum of Mulliken charges =   2.00000

 Dipole moment (field-independent basis, Debye):
    X=             -3.3040    Y=              0.4831    Z=              0.8847  Tot=              3.4544
 Quadrupole moment (field-independent basis, Debye-Ang):
   XX=             13.0498   YY=            -28.9907   ZZ=            -26.5010
   XY=             -1.0928   XZ=             -1.7994   YZ=             -0.4370

  Exact polarizability:  58.485   0.247  43.821   0.982  -0.104  43.590
 Approx polarizability:  32.596  -0.855  28.897   0.682  -0.208  29.650

 ******    7 imaginary frequencies (negative Signs) ******

                      1                      2                      3
                      A                      A                      A
 Frequencies --   -315.7241              -306.8497              -297.5303
 Red. masses --      1.0233                 1.0364                 1.0332
 Frc consts  --      0.0601                 0.0575                 0.0539
 IR Inten    --      9.9385                65.5077                47.3246

                      4                      5                      6
                      A                      A                      A
 Frequencies --   -135.1892               -89.5501               -59.2744
 Red. masses --      1.2590                 2.3639                 3.7557
 Frc consts  --      0.0136                 0.0112                 0.0078
 IR Inten    --      2.9289                 6.7688                12.6401

                      7                      8                      9
                      A                      A                      A
 Frequencies --    -54.6998                39.5048                69.1232
 Red. masses --      3.9773                 3.5309                 4.7884
 Frc consts  --      0.0070                 0.0032                 0.0135
 IR Inten    --     11.1700                 7.3540                 2.6911

                     10                     11                     12
                      A                      A                      A
 Frequencies --     86.6902                93.0477               254.9158
 Red. masses --      4.9991                 4.9799                 5.8588
 Frc consts  --      0.0221                 0.0254                 0.2243
 IR Inten    --      4.0747                 4.6143                 5.1622

                     13                     14                     15
                      A                      A                      A
 Frequencies --    276.0323               284.1619               341.6107
 Red. masses --      5.7603                 1.2148                 6.6445
 Frc consts  --      0.2586                 0.0578                 0.4568
 IR Inten    --     12.0368               106.9381                 8.6810

                     16                     17                     18
                      A                      A                      A
 Frequencies --    348.3611               459.4549               476.6107
 Red. masses --      3.8189                 1.3804                 1.2338
 Frc consts  --      0.2731                 0.1717                 0.1651
 IR Inten    --    155.0275                32.8231                71.2329

                     19                     20                     21
                      A                      A                      A
 Frequencies --    530.5652               553.7149               573.0301
 Red. masses --      1.1792                 1.1754                 4.7168
 Frc consts  --      0.1956                 0.2123                 0.9125
 IR Inten    --     24.3082                20.1795                81.9129

                     22                     23                     24
                      A                      A                      A
 Frequencies --    648.1955               662.4853               676.0696
 Red. masses --      1.1556                 1.1463                 1.1469
 Frc consts  --      0.2861                 0.2964                 0.3089
 IR Inten    --    327.9810               366.3626               685.5967

                     25                     26                     27
                      A                      A                      A
 Frequencies --    679.9546               944.8742              1397.9584
 Red. masses --      1.1633                 1.0603                 1.0555
 Frc consts  --      0.3169                 0.5577                 1.2153
 IR Inten    --    337.8707                61.6808               186.1896

                     28                     29                     30
                      A                      A                      A
 Frequencies --   1641.6562              1719.7850              1722.7485
 Red. masses --      1.1136                 1.0890                 1.0877
 Frc consts  --      1.7682                 1.8977                 1.9019
 IR Inten    --   1712.8878               179.4589               150.9954

                     31                     32                     33
                      A                      A                      A
 Frequencies --   1727.9067              1748.9561              1810.7268
 Red. masses --      1.0865                 1.0833                 1.0655
 Frc consts  --      1.9113                 1.9524                 2.0583
 IR Inten    --    114.2270               784.2491              1618.7193

                     34                     35                     36
                      A                      A                      A
 Frequencies --   3665.9905              3668.9910              3681.7782
 Red. masses --      1.0401                 1.0402                 1.0403
 Frc consts  --      8.2358                 8.2501                 8.3083
 IR Inten    --    107.7559               100.9247                83.5044

                     37                     38                     39
                      A                      A                      A
 Frequencies --   3690.2920              3725.4792              3774.5281
 Red. masses --      1.0405                 1.0653                 1.0847
 Frc consts  --      8.3489                 8.7115                 9.1051
 IR Inten    --     75.6399               145.7948               186.9338

                     40                     41                     42
                      A                      A                      A
 Frequencies --   3776.7448              3787.0093              3792.9685
 Red. masses --      1.0843                 1.0840                 1.0841
 Frc consts  --      9.1128                 9.1595                 9.1893
 IR Inten    --    181.9389               159.0957               196.4180

 - Thermochemistry -
 -------------------
 Temperature   298.150 Kelvin.  Pressure   1.00000 Atm.
 Atom     1 has atomic number 80 and mass 201.97060

 Molecular mass:   292.02342 amu.
 Principal axes and moments of inertia in atomic units:
                           1         2         3
     Eigenvalues --   745.018742092.397372146.38487
           X            0.99999  -0.00008  -0.00325
           Y            0.00012   0.99993   0.01209
           Z            0.00325  -0.01209   0.99992
 This molecule is an asymmetric top.
 Rotational symmetry number  1.
 Warning -- assumption of classical behavior for rotation
           may cause significant error
 Rotational temperatures (Kelvin)      0.11626     0.04139     0.04035
 Rotational constants (GHZ):           2.42241     0.86252     0.84083
    7 imaginary frequencies ignored.
 Zero-point vibrational energy     318995.7 (Joules/Mol)
                                   76.24181 (Kcal/Mol)
 Warning -- explicit consideration of  14 degrees of freedom as
           vibrations may cause significant error
 Vibrational temperatures:     56.84    99.45   124.73   133.87   366.77
          (Kelvin)            397.15   408.85   491.50   501.21   661.05
                              685.74   763.36   796.67   824.46   932.61
                              953.17   972.71   978.30  1359.46  2011.35
                             2361.98  2474.39  2478.65  2486.07  2516.36
                             2605.23  5274.54  5278.86  5297.26  5309.51
                             5360.13  5430.70  5433.89  5448.66  5457.24

 Zero-point correction=                           0.121499 (Hartree/Particle)
 Thermal correction to Energy=                    0.131232
 Thermal correction to Enthalpy=                  0.132177
 Thermal correction to Gibbs Free Energy=         0.084140
 Sum of electronic and zero-point Energies=           -237.171967
 Sum of electronic and thermal Energies=              -237.162234
 Sum of electronic and thermal Enthalpies=            -237.161290
 Sum of electronic and thermal Free Energies=         -237.209326

                     E (Thermal)             CV                S
                      KCal/Mol        Cal/Mol-Kelvin    Cal/Mol-Kelvin
 Total                   82.350             32.543            101.101
 Electronic               0.000              0.000              0.000
 Translational            0.889              2.981             42.912
 Rotational               0.889              2.981             29.594
 Vibrational             80.572             26.582             28.595
 Vibration     1          0.594              1.981              5.284
 Vibration     2          0.598              1.969              4.178
 Vibration     3          0.601              1.958              3.733
 Vibration     4          0.602              1.954              3.595
 Vibration     5          0.665              1.754              1.696
 Vibration     6          0.678              1.718              1.558
 Vibration     7          0.683              1.703              1.508
 Vibration     8          0.721              1.592              1.205
 Vibration     9          0.726              1.579              1.174
 Vibration    10          0.817              1.340              0.768
 Vibration    11          0.833              1.302              0.719
 Vibration    12          0.886              1.182              0.586
 Vibration    13          0.909              1.132              0.537
 Vibration    14          0.929              1.090              0.498

 Normal termination of Gaussian 16 at Wed May 11 21:33:51 2022.
