 Gaussian 16, Revision A.03,
 Gaussian 16:  ES64L-G16RevA.03 25-Dec-2016

 ------------------------
 #p MP2(full) SDDAll freq
 ------------------------

 file 'w5s8.log' Now we use Def2-QZVPPD, but it was opt at: ---' #p ZOR
 A-SR+SO PBE QZ4P'---
 ----------------------------------------------------------------------
 Symbolic Z-matrix:
 Charge =  2 Multiplicity = 1

                         Standard orientation:
 ---------------------------------------------------------------------
 Center     Atomic      Atomic             Coordinates (Angstroms)
 Number     Number       Type             X           Y           Z
 ---------------------------------------------------------------------
      1         80           0        0.026823    0.045044   -0.036278
      2          1           0        2.677249    1.143271   -0.612035
      3          8           0        2.310448    0.290672   -0.309531
      4          1           0        2.811480   -0.403237   -0.779470
      5          1           0        0.003876   -2.783538   -1.092925
      6          8           0       -0.296587   -1.907431   -1.398306
      7          1           0       -0.205312   -1.914117   -2.369056
      8          1           0        1.266369   -0.783995    2.549099
      9          8           0        0.460251   -0.985810    2.039378
     10          1           0       -0.254508   -1.100247    2.692079
     11          1           0       -0.250387    3.020031    0.426371
     12          8           0       -0.512601    2.365564   -0.247838
     13          1           0       -0.497475    2.835985   -1.101895
     14          1           0       -2.782700    0.624114    0.254457
     15          8           0       -2.239544   -0.185263    0.311648
     16          1           0       -2.690192   -0.863646   -0.227194
 ---------------------------------------------------------------------

 SCF Done:  E(RHF) =  -236.522750175     A.U. after   13 cycles
 E2 =    -0.7740390417D+00 EUMP2 =    -0.23729678921618D+03
 E2 =    -0.7740390417D+00 EUMP2 =    -0.23729678921618D+03

 The electronic state is 1-A.
 Alpha  occ. eigenvalues --   -5.41752  -3.41574  -3.41463  -3.41444  -1.71864
 Alpha  occ. eigenvalues --   -1.70869  -1.70112  -1.69586  -1.68762  -1.07140
 Alpha  occ. eigenvalues --   -1.06190  -1.05401  -1.05095  -1.04811  -1.04191
 Alpha  occ. eigenvalues --   -1.01886  -1.00886  -0.99054  -0.98000  -0.97037
 Alpha  occ. eigenvalues --   -0.94155  -0.91780  -0.89355  -0.87848  -0.86718
 Alpha  occ. eigenvalues --   -0.85338  -0.84728  -0.83497  -0.81663
 Alpha virt. eigenvalues --   -0.27546  -0.18682  -0.17826  -0.17723  -0.17113
 Alpha virt. eigenvalues --   -0.11609  -0.10746  -0.09529  -0.09277  -0.07162
 Alpha virt. eigenvalues --   -0.05728  -0.05163  -0.04477  -0.04231  -0.03186

 Mulliken charges:
               1
     1  Hg   1.393743
     2  H    0.527147
     3  O   -0.920561
     4  H    0.531393
     5  H    0.528647
     6  O   -0.949570
     7  H    0.524120
     8  H    0.524997
     9  O   -0.944347
    10  H    0.529811
    11  H    0.528588
    12  O   -0.944584
    13  H    0.526231
    14  H    0.525372
    15  O   -0.908542
    16  H    0.527554
 Sum of Mulliken charges =   2.00000

 Dipole moment (field-independent basis, Debye):
    X=              1.6410    Y=              1.5602    Z=             -2.4548  Tot=              3.3396
 Quadrupole moment (field-independent basis, Debye-Ang):
   XX=            -19.6914   YY=            -14.8170   ZZ=            -22.5899
   XY=              0.2045   XZ=             -1.5939   YZ=              2.2316

  Exact polarizability:  47.103   0.077  48.121  -0.076   0.114  43.690
 Approx polarizability:  28.035  -0.002  30.865   0.146   0.272  29.278

 ******    8 imaginary frequencies (negative Signs) ******

                      1                      2                      3
                      A                      A                      A
 Frequencies --   -368.5065              -344.0485              -328.4487
 Red. masses --      1.0216                 1.0193                 1.0232
 Frc consts  --      0.0817                 0.0711                 0.0650
 IR Inten    --     12.5957                 9.8012                34.7158

                      4                      5                      6
                      A                      A                      A
 Frequencies --   -302.0473              -195.4144               -57.5760
 Red. masses --      1.0321                 1.1427                 3.5317
 Frc consts  --      0.0555                 0.0257                 0.0069
 IR Inten    --     28.4846                16.4115                10.4715

                      7                      8                      9
                      A                      A                      A
 Frequencies --    -49.3494               -37.9555                22.6386
 Red. masses --      3.6344                 3.1819                 4.7064
 Frc consts  --      0.0052                 0.0027                 0.0014
 IR Inten    --      9.6669                17.4897                 3.3331

                     10                     11                     12
                      A                      A                      A
 Frequencies --     58.3190                69.5565                84.1536
 Red. masses --      3.8253                 4.6756                 5.6739
 Frc consts  --      0.0077                 0.0133                 0.0237
 IR Inten    --      3.0580                 2.8954                 0.1970

                     13                     14                     15
                      A                      A                      A
 Frequencies --    202.8000               266.9646               283.2312
 Red. masses --      6.0065                 6.6982                 6.7414
 Frc consts  --      0.1455                 0.2813                 0.3186
 IR Inten    --      0.7570                 6.7938                17.4245

                     16                     17                     18
                      A                      A                      A
 Frequencies --    327.8156               339.6658               453.8761
 Red. masses --      6.9062                 7.0348                 1.1426
 Frc consts  --      0.4373                 0.4782                 0.1387
 IR Inten    --      2.5708                 7.6708                 4.2255

                     19                     20                     21
                      A                      A                      A
 Frequencies --    473.6714               483.0478               501.4425
 Red. masses --      1.1650                 1.1803                 1.1618
 Frc consts  --      0.1540                 0.1623                 0.1721
 IR Inten    --     38.6075                16.0756                32.6782

                     22                     23                     24
                      A                      A                      A
 Frequencies --    545.9187               595.3373               611.7821
 Red. masses --      1.1954                 1.1671                 1.1553
 Frc consts  --      0.2099                 0.2437                 0.2548
 IR Inten    --     42.0901              1104.2705               579.8311

                     25                     26                     27
                      A                      A                      A
 Frequencies --    623.7453               646.7076               653.7292
 Red. masses --      1.1438                 1.1429                 1.1497
 Frc consts  --      0.2622                 0.2816                 0.2895
 IR Inten    --     47.2617               340.0811               287.5339

                     28                     29                     30
                      A                      A                      A
 Frequencies --   1717.8074              1724.6031              1728.3990
 Red. masses --      1.0893                 1.0896                 1.0879
 Frc consts  --      1.8939                 1.9095                 1.9149
 IR Inten    --    149.0827               221.6908               126.0477

                     31                     32                     33
                      A                      A                      A
 Frequencies --   1731.0445              1731.9651              3666.7660
 Red. masses --      1.0878                 1.0866                 1.0399
 Frc consts  --      1.9205                 1.9205                 8.2377
 IR Inten    --     55.6710                67.0165               108.8053

                     34                     35                     36
                      A                      A                      A
 Frequencies --   3670.7585              3683.8308              3687.2484
 Red. masses --      1.0401                 1.0402                 1.0402
 Frc consts  --      8.2572                 8.3167                 8.3324
 IR Inten    --     68.7006               115.6880                69.4061

                     37                     38                     39
                      A                      A                      A
 Frequencies --   3692.1997              3777.4357              3778.2685
 Red. masses --      1.0403                 1.0845                 1.0845
 Frc consts  --      8.3554                 9.1178                 9.1216
 IR Inten    --     70.1082                94.6742               254.2565

                     40                     41                     42
                      A                      A                      A
 Frequencies --   3791.0361              3794.1951              3799.9300
 Red. masses --      1.0847                 1.0845                 1.0846
 Frc consts  --      9.1846                 9.1989                 9.2271
 IR Inten    --    162.0441               197.2169               174.3205

 - Thermochemistry -
 -------------------
 Temperature   298.150 Kelvin.  Pressure   1.00000 Atm.
 Atom     1 has atomic number 80 and mass 201.97060

 Molecular mass:   292.02342 amu.
 Principal axes and moments of inertia in atomic units:
                           1         2         3
     Eigenvalues --  1157.576841187.079361449.44119
           X            0.99998  -0.00273  -0.00514
           Y            0.00278   0.99994   0.01092
           Z            0.00511  -0.01093   0.99993
 This molecule is an asymmetric top.
 Rotational symmetry number  1.
 Warning -- assumption of classical behavior for rotation
           may cause significant error
 Rotational temperatures (Kelvin)      0.07482     0.07296     0.05976
 Rotational constants (GHZ):           1.55907     1.52032     1.24513
    8 imaginary frequencies ignored.
 Zero-point vibrational energy     318325.6 (Joules/Mol)
                                   76.08165 (Kcal/Mol)
 Warning -- explicit consideration of  16 degrees of freedom as
           vibrations may cause significant error
 Vibrational temperatures:     32.57    83.91   100.08   121.08   291.78
          (Kelvin)            384.10   407.51   471.65   488.70   653.03
                              681.51   695.00   721.46   785.46   856.56
                              880.22   897.43   930.47   940.57  2471.54
                             2481.32  2486.78  2490.59  2491.91  5275.66
                             5281.40  5300.21  5305.13  5312.25  5434.89
                             5436.09  5454.46  5459.00  5467.25

 Zero-point correction=                           0.121244 (Hartree/Particle)
 Thermal correction to Energy=                    0.131467
 Thermal correction to Enthalpy=                  0.132411
 Thermal correction to Gibbs Free Energy=         0.082971
 Sum of electronic and zero-point Energies=           -237.175545
 Sum of electronic and thermal Energies=              -237.165323
 Sum of electronic and thermal Enthalpies=            -237.164378
 Sum of electronic and thermal Free Energies=         -237.213818

                     E (Thermal)             CV                S
                      KCal/Mol        Cal/Mol-Kelvin    Cal/Mol-Kelvin
 Total                   82.497             33.736            104.054
 Electronic               0.000              0.000              0.000
 Translational            0.889              2.981             42.912
 Rotational               0.889              2.981             29.078
 Vibrational             80.719             27.774             32.064
 Vibration     1          0.593              1.985              6.388
 Vibration     2          0.596              1.974              4.513
 Vibration     3          0.598              1.969              4.166
 Vibration     4          0.601              1.960              3.792
 Vibration     5          0.639              1.836              2.108
 Vibration     6          0.672              1.734              1.616
 Vibration     7          0.682              1.705              1.514
 Vibration     8          0.711              1.620              1.271
 Vibration     9          0.720              1.596              1.214
 Vibration    10          0.812              1.352              0.784
 Vibration    11          0.830              1.308              0.727
 Vibration    12          0.839              1.288              0.702
 Vibration    13          0.857              1.247              0.655
 Vibration    14          0.901              1.149              0.553
 Vibration    15          0.953              1.042              0.458
 Vibration    16          0.971              1.007              0.430

 Normal termination of Gaussian 16 at Wed May 11 21:34:54 2022.
