 Gaussian 16, Revision A.03,
 Gaussian 16:  ES64L-G16RevA.03 25-Dec-2016

 ------------------------
 #p MP2(full) SDDAll freq
 ------------------------

 file 'w5s9.log' Now we use Def2-QZVPPD, but it was opt at: ---' #p ZOR
 A-SR+SO PBE QZ4P'---
 ----------------------------------------------------------------------
 Symbolic Z-matrix:
 Charge =  2 Multiplicity = 1

                         Standard orientation:
 ---------------------------------------------------------------------
 Center     Atomic      Atomic             Coordinates (Angstroms)
 Number     Number       Type             X           Y           Z
 ---------------------------------------------------------------------
      1         80           0       -0.447209   -0.223585   -0.041852
      2          8           0        2.961376   -2.051281    0.236660
      3          1           0        3.472184   -2.442162   -0.495820
      4          1           0        3.529099   -2.086393    1.027458
      5          8           0        1.566516   -0.106036   -0.325035
      6          1           0        1.913076    0.836326   -0.132507
      7          1           0        2.225134   -0.932134   -0.036042
      8          8           0       -2.520427   -0.702617    0.102933
      9          1           0       -2.813000   -1.574015   -0.236280
     10          1           0       -2.952014   -0.565193    0.971751
     11          8           0       -0.795925    2.152170    0.224828
     12          1           0        0.034234    2.664402    0.130394
     13          1           0       -1.510497    2.688122   -0.164485
     14          8           0        2.127635    2.419490    0.033938
     15          1           0        2.564201    2.853733   -0.723228
     16          1           0        2.600916    2.750277    0.820300
 ---------------------------------------------------------------------

 SCF Done:  E(RHF) =  -236.502631899     A.U. after   14 cycles
 E2 =    -0.7847666611D+00 EUMP2 =    -0.23728739855992D+03
 E2 =    -0.7847666611D+00 EUMP2 =    -0.23728739855992D+03

 The electronic state is 1-A.
 Alpha  occ. eigenvalues --   -5.44612  -3.44334  -3.44003  -3.43746  -1.75582
 Alpha  occ. eigenvalues --   -1.69528  -1.68434  -1.67188  -1.65204  -1.11120
 Alpha  occ. eigenvalues --   -1.09420  -1.07908  -1.03280  -1.03094  -1.02634
 Alpha  occ. eigenvalues --   -1.02392  -1.01804  -1.01000  -1.00515  -0.96710
 Alpha  occ. eigenvalues --   -0.93907  -0.90524  -0.89085  -0.87964  -0.85511
 Alpha  occ. eigenvalues --   -0.82892  -0.82757  -0.82547  -0.80245
 Alpha virt. eigenvalues --   -0.27994  -0.20570  -0.18163  -0.17208  -0.16209
 Alpha virt. eigenvalues --   -0.11997  -0.10600  -0.09259  -0.08384  -0.07294
 Alpha virt. eigenvalues --   -0.06733  -0.05780  -0.04942  -0.04216  -0.02656

 Mulliken charges:
               1
     1  Hg   1.383821
     2  O   -0.920533
     3  H    0.521538
     4  H    0.518373
     5  O   -1.099037
     6  H    0.602569
     7  H    0.636225
     8  O   -0.918611
     9  H    0.559284
    10  H    0.560400
    11  O   -0.957703
    12  H    0.534657
    13  H    0.522300
    14  O   -0.963969
    15  H    0.511212
    16  H    0.509473
 Sum of Mulliken charges =   2.00000

 Dipole moment (field-independent basis, Debye):
    X=              3.8961    Y=              0.4470    Z=              1.4010  Tot=              4.1644
 Quadrupole moment (field-independent basis, Debye-Ang):
   XX=             16.8798   YY=             -8.8265   ZZ=            -44.2087
   XY=              5.9181   XZ=              0.4315   YZ=             -2.7595

  Exact polarizability:  58.826   0.088  51.002  -0.787   0.550  37.625
 Approx polarizability:  33.610   0.232  31.197   0.057   0.660  28.385

 ******    5 imaginary frequencies (negative Signs) ******

                      1                      2                      3
                      A                      A                      A
 Frequencies --   -316.0472              -308.6408              -272.4843
 Red. masses --      1.0303                 1.0307                 1.0282
 Frc consts  --      0.0606                 0.0578                 0.0450
 IR Inten    --     35.3968                18.6170                54.2661

                      4                      5                      6
                      A                      A                      A
 Frequencies --   -114.3124               -84.3863                21.0529
 Red. masses --      1.9922                 2.3950                 4.3508
 Frc consts  --      0.0153                 0.0100                 0.0011
 IR Inten    --     26.8101                47.6763                 3.8783

                      7                      8                      9
                      A                      A                      A
 Frequencies --     51.8503                77.8488                95.7267
 Red. masses --      4.8687                 4.4503                 4.5962
 Frc consts  --      0.0077                 0.0159                 0.0248
 IR Inten    --      7.4538                 4.1527                 0.1262

                     10                     11                     12
                      A                      A                      A
 Frequencies --    102.8269               185.5760               251.7954
 Red. masses --      5.9656                 1.3669                 5.8380
 Frc consts  --      0.0372                 0.0277                 0.2181
 IR Inten    --     10.5588                22.3504                20.9011

                     13                     14                     15
                      A                      A                      A
 Frequencies --    274.8877               301.7674               392.0740
 Red. masses --      3.0695                 1.7559                 1.8785
 Frc consts  --      0.1367                 0.0942                 0.1701
 IR Inten    --     16.1079                11.2237                65.7592

                     16                     17                     18
                      A                      A                      A
 Frequencies --    397.3884               442.8742               524.7072
 Red. masses --      2.6496                 7.0682                 1.1917
 Frc consts  --      0.2465                 0.8168                 0.1933
 IR Inten    --    118.4592                39.6195                77.7914

                     19                     20                     21
                      A                      A                      A
 Frequencies --    619.5820               654.1387               690.8348
 Red. masses --      3.5372                 1.2349                 1.2160
 Frc consts  --      0.8000                 0.3113                 0.3419
 IR Inten    --    158.3553               352.9987               194.9772

                     22                     23                     24
                      A                      A                      A
 Frequencies --    698.3651               725.7355               736.6902
 Red. masses --      1.1654                 1.1294                 1.1370
 Frc consts  --      0.3349                 0.3505                 0.3636
 IR Inten    --    399.0129               120.1650               501.7591

                     25                     26                     27
                      A                      A                      A
 Frequencies --   1093.7370              1240.0959              1392.5390
 Red. masses --      1.0545                 1.0440                 1.0553
 Frc consts  --      0.7432                 0.9459                 1.2057
 IR Inten    --    189.5235                86.4385               170.8234

                     28                     29                     30
                      A                      A                      A
 Frequencies --   1628.5908              1722.5526              1736.9805
 Red. masses --      1.0796                 1.0855                 1.0898
 Frc consts  --      1.6871                 1.8977                 1.9372
 IR Inten    --    734.2341               222.8070               202.1175

                     31                     32                     33
                      A                      A                      A
 Frequencies --   1741.4934              1767.3096              1854.9102
 Red. masses --      1.0860                 1.0690                 1.1061
 Frc consts  --      1.9405                 1.9672                 2.2423
 IR Inten    --     74.9245                18.0704              3170.5574

                     34                     35                     36
                      A                      A                      A
 Frequencies --   2891.4665              3619.5395              3623.5566
 Red. masses --      1.0740                 1.0453                 1.0413
 Frc consts  --      5.2904                 8.0683                 8.0557
 IR Inten    --   1554.3707               324.1568                75.8763

                     37                     38                     39
                      A                      A                      A
 Frequencies --   3685.3314              3698.0909              3725.2878
 Red. masses --      1.0406                 1.0405                 1.0856
 Frc consts  --      8.3273                 8.3843                 8.8767
 IR Inten    --     31.8604                79.2213               264.0246

                     40                     41                     42
                      A                      A                      A
 Frequencies --   3775.7621              3783.5363              3803.7561
 Red. masses --      1.0788                 1.0830                 1.0844
 Frc consts  --      9.0616                 9.1339                 9.2441
 IR Inten    --    199.2127               149.7125               191.4254

 - Thermochemistry -
 -------------------
 Temperature   298.150 Kelvin.  Pressure   1.00000 Atm.
 Atom     1 has atomic number 80 and mass 201.97060

 Molecular mass:   292.02342 amu.
 Principal axes and moments of inertia in atomic units:
                           1         2         3
     Eigenvalues --  1089.474301695.663372731.65576
           X            0.99988  -0.01553  -0.00130
           Y            0.01553   0.99987  -0.00460
           Z            0.00137   0.00458   0.99999
 This molecule is an asymmetric top.
 Rotational symmetry number  1.
 Warning -- assumption of classical behavior for rotation
           may cause significant error
 Rotational temperatures (Kelvin)      0.07950     0.05108     0.03171
 Rotational constants (GHZ):           1.65652     1.06433     0.66068
    5 imaginary frequencies ignored.
 Zero-point vibrational energy     323172.7 (Joules/Mol)
                                   77.24013 (Kcal/Mol)
 Warning -- explicit consideration of  14 degrees of freedom as
           vibrations may cause significant error
 Vibrational temperatures:     30.29    74.60   112.01   137.73   147.95
          (Kelvin)            267.00   362.28   395.50   434.18   564.11
                              571.75   637.20   754.94   891.44   941.16
                              993.96  1004.79  1044.17  1059.93  1573.64
                             1784.22  2003.55  2343.18  2478.37  2499.13
                             2505.62  2542.76  2668.80  4160.18  5207.71
                             5213.49  5302.37  5320.73  5359.86  5432.48
                             5443.66  5472.76

 Zero-point correction=                           0.123090 (Hartree/Particle)
 Thermal correction to Energy=                    0.133716
 Thermal correction to Enthalpy=                  0.134660
 Thermal correction to Gibbs Free Energy=         0.083577
 Sum of electronic and zero-point Energies=           -237.164309
 Sum of electronic and thermal Energies=              -237.153683
 Sum of electronic and thermal Enthalpies=            -237.152739
 Sum of electronic and thermal Free Energies=         -237.203821

                     E (Thermal)             CV                S
                      KCal/Mol        Cal/Mol-Kelvin    Cal/Mol-Kelvin
 Total                   83.908             34.230            107.513
 Electronic               0.000              0.000              0.000
 Translational            0.889              2.981             42.912
 Rotational               0.889              2.981             30.002
 Vibrational             82.131             28.269             34.599
 Vibration     1          0.593              1.985              6.532
 Vibration     2          0.596              1.977              4.746
 Vibration     3          0.599              1.964              3.944
 Vibration     4          0.603              1.952              3.540
 Vibration     5          0.605              1.947              3.400
 Vibration     6          0.632              1.860              2.272
 Vibration     7          0.664              1.760              1.718
 Vibration     8          0.677              1.720              1.565
 Vibration     9          0.694              1.670              1.407
 Vibration    10          0.760              1.487              0.992
 Vibration    11          0.764              1.476              0.972
 Vibration    12          0.803              1.377              0.818
 Vibration    13          0.880              1.195              0.599
 Vibration    14          0.980              0.991              0.417

 Normal termination of Gaussian 16 at Wed May 11 21:35:59 2022.
