 Gaussian 16, Revision A.03,
 Gaussian 16:  ES64L-G16RevA.03 25-Dec-2016

 ------------------------
 #p MP2(full) SDDAll freq
 ------------------------

 file 'w6s14.log' Now we use Def2-QZVPPD, but it was opt at: ---'ZORA-S
 R+SO PBE QZ4P'---
 ----------------------------------------------------------------------
 Symbolic Z-matrix:
 Charge =  2 Multiplicity = 1

                         Standard orientation:
 ---------------------------------------------------------------------
 Center     Atomic      Atomic             Coordinates (Angstroms)
 Number     Number       Type             X           Y           Z
 ---------------------------------------------------------------------
      1         80           0       -0.000267   -0.001095   -0.000172
      2          1           0        1.365758   -2.569338   -0.963216
      3          8           0        1.592975   -1.732565   -0.519121
      4          1           0        2.214422   -1.966170    0.194771
      5          1           0       -1.423679   -0.438343   -2.681208
      6          8           0       -1.631787   -0.381061   -1.731174
      7          1           0       -2.270192   -1.094674   -1.550321
      8          1           0        2.267286    0.785625   -1.766190
      9          8           0        1.646754    1.292138   -1.210212
     10          1           0        1.444581    2.105504   -1.706635
     11          1           0       -2.264805   -0.780760    1.769400
     12          8           0       -1.649051   -1.288928    1.210123
     13          1           0       -1.449469   -2.104885    1.703906
     14          1           0       -2.210429    1.974231   -0.191156
     15          8           0       -1.587021    1.736900    0.519728
     16          1           0       -1.356983    2.571627    0.966511
     17          1           0        2.265673    1.100181    1.553633
     18          8           0        1.630701    0.381994    1.731088
     19          1           0        1.418622    0.436739    2.680771
 ---------------------------------------------------------------------

 SCF Done:  E(RHF) =  -253.465304443     A.U. after   12 cycles
 E2 =    -0.9084044265D+00 EUMP2 =    -0.25437370886899D+03
 E2 =    -0.9084044265D+00 EUMP2 =    -0.25437370886899D+03

 The electronic state is 1-A.
 Alpha  occ. eigenvalues --   -5.38474  -3.38337  -3.38334  -3.38152  -1.68395
 Alpha  occ. eigenvalues --   -1.68182  -1.67917  -1.67892  -1.67889  -1.67848
 Alpha  occ. eigenvalues --   -1.03933  -1.03329  -1.03289  -1.03244  -1.02936
 Alpha  occ. eigenvalues --   -1.02894  -1.00917  -1.00840  -0.96466  -0.95493
 Alpha  occ. eigenvalues --   -0.95475  -0.93526  -0.92399  -0.90898  -0.90867
 Alpha  occ. eigenvalues --   -0.85552  -0.85502  -0.83739  -0.83725  -0.83355
 Alpha  occ. eigenvalues --   -0.82782  -0.80071  -0.79990
 Alpha virt. eigenvalues --   -0.24377  -0.16871  -0.16831  -0.16008  -0.15059
 Alpha virt. eigenvalues --   -0.11223  -0.11216  -0.09071  -0.07817  -0.07768
 Alpha virt. eigenvalues --   -0.04254  -0.04195  -0.03020  -0.02499  -0.02332

 Mulliken charges:
               1
     1  Hg   1.385452
     2  H    0.517064
     3  O   -0.936815
     4  H    0.522641
     5  H    0.517667
     6  O   -0.936308
     7  H    0.522318
     8  H    0.522041
     9  O   -0.937822
    10  H    0.516475
    11  H    0.522097
    12  O   -0.937773
    13  H    0.516688
    14  H    0.522785
    15  O   -0.937443
    16  H    0.517059
    17  H    0.522513
    18  O   -0.935935
    19  H    0.517296
 Sum of Mulliken charges =   2.00000

 Dipole moment (field-independent basis, Debye):
    X=             -0.0120    Y=              0.0006    Z=              0.0199  Tot=              0.0233
 Quadrupole moment (field-independent basis, Debye-Ang):
   XX=            -25.2910   YY=            -18.6278   ZZ=            -19.4374
   XY=              0.4018   XZ=             -0.1551   YZ=              0.0461

  Exact polarizability:  55.137  -0.007  52.678  -0.005   0.050  52.559
 Approx polarizability:  32.996   0.013  34.648  -0.043   0.046  34.640

 ******    9 imaginary frequencies (negative Signs) ******

                      1                      2                      3
                      A                      A                      A
 Frequencies --   -340.8106              -338.1490              -317.2676
 Red. masses --      1.0286                 1.0299                 1.0211
 Frc consts  --      0.0704                 0.0694                 0.0606
 IR Inten    --     61.0967                62.2739                 0.2101

                      4                      5                      6
                      A                      A                      A
 Frequencies --   -314.4114              -232.7454              -162.7176
 Red. masses --      1.0220                 1.0732                 1.1233
 Frc consts  --      0.0595                 0.0343                 0.0175
 IR Inten    --      0.8489                 0.0593                 3.9327

                      7                      8                      9
                      A                      A                      A
 Frequencies --    -70.7047               -64.6344               -63.5391
 Red. masses --      2.9994                 3.1228                 3.1489
 Frc consts  --      0.0088                 0.0077                 0.0075
 IR Inten    --      8.2926                23.0415                23.4041

                     10                     11                     12
                      A                      A                      A
 Frequencies --      9.0537                16.3206                31.9151
 Red. masses --      3.6480                 3.6438                 3.0561
 Frc consts  --      0.0002                 0.0006                 0.0018
 IR Inten    --      0.0160                 0.0064                 0.0176

                     13                     14                     15
                      A                      A                      A
 Frequencies --     81.0153                81.2970                91.4661
 Red. masses --      5.8629                 5.8519                 4.0563
 Frc consts  --      0.0227                 0.0228                 0.0200
 IR Inten    --      0.6981                 0.6333                 1.7401

                     16                     17                     18
                      A                      A                      A
 Frequencies --    191.1911               191.9447               252.8308
 Red. masses --      5.7085                 5.7253                 6.9592
 Frc consts  --      0.1229                 0.1243                 0.2621
 IR Inten    --      0.0002                 0.0001                11.3763

                     19                     20                     21
                      A                      A                      A
 Frequencies --    256.2951               284.4356               306.0910
 Red. masses --      7.0379                 6.6697                 6.0690
 Frc consts  --      0.2724                 0.3179                 0.3350
 IR Inten    --     11.6071                12.1532                 0.0003

                     22                     23                     24
                      A                      A                      A
 Frequencies --    403.4293               407.5386               429.3035
 Red. masses --      1.1976                 1.1958                 1.2470
 Frc consts  --      0.1148                 0.1170                 0.1354
 IR Inten    --      0.0317                 0.3316                72.1504

                     25                     26                     27
                      A                      A                      A
 Frequencies --    433.9111               436.3047               459.7107
 Red. masses --      1.2464                 1.2493                 1.2779
 Frc consts  --      0.1383                 0.1401                 0.1591
 IR Inten    --     59.6883                14.4326                62.2288

                     28                     29                     30
                      A                      A                      A
 Frequencies --    598.6071               602.1170               604.5989
 Red. masses --      1.1384                 1.1530                 1.1529
 Frc consts  --      0.2403                 0.2463                 0.2483
 IR Inten    --   1454.8540                36.2927                33.2991

                     31                     32                     33
                      A                      A                      A
 Frequencies --    621.5074               622.1682               633.7943
 Red. masses --      1.1419                 1.1420                 1.1339
 Frc consts  --      0.2599                 0.2605                 0.2684
 IR Inten    --    627.5960               610.5147                 6.0658

                     34                     35                     36
                      A                      A                      A
 Frequencies --   1714.4777              1715.4861              1716.3247
 Red. masses --      1.0890                 1.0890                 1.0904
 Frc consts  --      1.8860                 1.8882                 1.8926
 IR Inten    --    326.5167               329.0324                 6.0207

                     37                     38                     39
                      A                      A                      A
 Frequencies --   1717.2779              1719.4868              1721.8364
 Red. masses --      1.0906                 1.0859                 1.0882
 Frc consts  --      1.8949                 1.8917                 1.9007
 IR Inten    --      0.8941                 0.2166                96.7035

                     40                     41                     42
                      A                      A                      A
 Frequencies --   3689.3691              3691.9277              3692.8229
 Red. masses --      1.0401                 1.0401                 1.0399
 Frc consts  --      8.3409                 8.3527                 8.3550
 IR Inten    --     77.2857                92.1602                 3.1165

                     43                     44                     45
                      A                      A                      A
 Frequencies --   3693.2901              3693.6513              3695.7178
 Red. masses --      1.0403                 1.0402                 1.0401
 Frc consts  --      8.3603                 8.3612                 8.3699
 IR Inten    --     40.9204                80.9146                61.7870

                     46                     47                     48
                      A                      A                      A
 Frequencies --   3800.8497              3802.8843              3803.1789
 Red. masses --      1.0843                 1.0842                 1.0843
 Frc consts  --      9.2290                 9.2382                 9.2401
 IR Inten    --    142.7638                50.6639               107.5859

                     49                     50                     51
                      A                      A                      A
 Frequencies --   3803.3570              3803.8440              3806.4972
 Red. masses --      1.0840                 1.0842                 1.0843
 Frc consts  --      9.2392                 9.2427                 9.2565
 IR Inten    --    224.1728               216.3117               158.5436

 - Thermochemistry -
 -------------------
 Temperature   298.150 Kelvin.  Pressure   1.00000 Atm.
 Atom     1 has atomic number 80 and mass 201.97060

 Molecular mass:   310.03399 amu.
 Principal axes and moments of inertia in atomic units:
                           1         2         3
     Eigenvalues --  1332.471101715.119801727.70598
           X            1.00000   0.00136  -0.00054
           Y           -0.00136   1.00000   0.00098
           Z            0.00054  -0.00098   1.00000
 This molecule is an asymmetric top.
 Rotational symmetry number  1.
 Warning -- assumption of classical behavior for rotation
           may cause significant error
 Rotational temperatures (Kelvin)      0.06500     0.05050     0.05013
 Rotational constants (GHZ):           1.35443     1.05225     1.04459
    9 imaginary frequencies ignored.
 Zero-point vibrational energy     378792.3 (Joules/Mol)
                                   90.53353 (Kcal/Mol)
 Warning -- explicit consideration of  21 degrees of freedom as
           vibrations may cause significant error
 Vibrational temperatures:     13.03    23.48    45.92   116.56   116.97
          (Kelvin)            131.60   275.08   276.17   363.77   368.75
                              409.24   440.40   580.44   586.36   617.67
                              624.30   627.75   661.42   861.26   866.31
                              869.88   894.21   895.16   911.89  2466.75
                             2468.20  2469.41  2470.78  2473.96  2477.34
                             5308.18  5311.86  5313.15  5313.82  5314.34
                             5317.31  5468.57  5471.50  5471.93  5472.18
                             5472.88  5476.70

 Zero-point correction=                           0.144274 (Hartree/Particle)
 Thermal correction to Energy=                    0.157693
 Thermal correction to Enthalpy=                  0.158637
 Thermal correction to Gibbs Free Energy=         0.099884
 Sum of electronic and zero-point Energies=           -254.229435
 Sum of electronic and thermal Energies=              -254.216016
 Sum of electronic and thermal Enthalpies=            -254.215072
 Sum of electronic and thermal Free Energies=         -254.273825

                     E (Thermal)             CV                S
                      KCal/Mol        Cal/Mol-Kelvin    Cal/Mol-Kelvin
 Total                   98.954             43.048            123.657
 Electronic               0.000              0.000              0.000
 Translational            0.889              2.981             43.091
 Rotational               0.889              2.981             29.758
 Vibrational             97.176             37.086             50.808
 Vibration     1          0.593              1.987              8.209
 Vibration     2          0.593              1.986              7.038
 Vibration     3          0.594              1.983              5.707
 Vibration     4          0.600              1.962              3.866
 Vibration     5          0.600              1.962              3.859
 Vibration     6          0.602              1.955              3.628
 Vibration     7          0.634              1.852              2.216
 Vibration     8          0.634              1.851              2.209
 Vibration     9          0.664              1.758              1.711
 Vibration    10          0.666              1.752              1.687
 Vibration    11          0.683              1.703              1.507
 Vibration    12          0.696              1.662              1.383
 Vibration    13          0.769              1.463              0.950
 Vibration    14          0.772              1.454              0.935
 Vibration    15          0.791              1.406              0.861
 Vibration    16          0.795              1.396              0.846
 Vibration    17          0.797              1.391              0.838
 Vibration    18          0.818              1.339              0.767
 Vibration    19          0.957              1.035              0.452
 Vibration    20          0.960              1.027              0.446
 Vibration    21          0.963              1.022              0.442

 Normal termination of Gaussian 16 at Wed May 11 22:04:04 2022.
