 Gaussian 16, Revision A.03,
 Gaussian 16:  ES64L-G16RevA.03 25-Dec-2016

 ------------------------
 #p MP2(full) SDDAll freq
 ------------------------

 file 'w6s16.log' Now we use Def2-QZVPPD, but it was opt at: ---'ZORA-S
 R+SO PBE QZ4P'---
 ----------------------------------------------------------------------
 Symbolic Z-matrix:
 Charge =  2 Multiplicity = 1

                         Standard orientation:
 ---------------------------------------------------------------------
 Center     Atomic      Atomic             Coordinates (Angstroms)
 Number     Number       Type             X           Y           Z
 ---------------------------------------------------------------------
      1         80           0        0.202457   -0.151841   -0.137975
      2          1           0       -3.565694   -2.593489   -0.609777
      3          8           0       -2.914646   -2.454039    0.099772
      4          1           0       -3.246364   -2.935393    0.878069
      5          1           0       -2.275723   -1.187659    0.303678
      6          8           0       -1.724406   -0.303570    0.516250
      7          1           0       -2.265824    0.556086    0.430091
      8          1           0        2.375321   -0.863025   -1.395863
      9          8           0        2.186594   -0.219578   -0.686522
     10          1           0        2.996975   -0.243311    0.076483
     11          1           0       -3.612299    2.243388   -0.214200
     12          8           0       -2.897225    2.034136    0.414023
     13          1           0       -3.210191    2.365067    1.276403
     14          1           0       -0.985216    2.653911   -0.115645
     15          8           0       -0.080028    2.304809   -0.240789
     16          1           0        0.413498    2.960897   -0.761158
     17          1           0        4.590349    0.565911    0.943605
     18          8           0        3.947431   -0.163299    1.017397
     19          1           0        4.446896   -0.962765    1.265272
 ---------------------------------------------------------------------

 SCF Done:  E(RHF) =  -253.449455396     A.U. after   14 cycles
 E2 =    -0.9223386212D+00 EUMP2 =    -0.25437179401678D+03
 E2 =    -0.9223386212D+00 EUMP2 =    -0.25437179401678D+03

 The electronic state is 1-A.
 Alpha  occ. eigenvalues --   -5.41355  -3.41040  -3.40678  -3.40378  -1.69507
 Alpha  occ. eigenvalues --   -1.67638  -1.66510  -1.66136  -1.64180  -1.63885
 Alpha  occ. eigenvalues --   -1.07245  -1.06142  -1.05569  -1.02782  -1.01134
 Alpha  occ. eigenvalues --   -1.00848  -1.00232  -0.99094  -0.98360  -0.97468
 Alpha  occ. eigenvalues --   -0.97330  -0.94212  -0.91286  -0.87850  -0.86647
 Alpha  occ. eigenvalues --   -0.85774  -0.83480  -0.83109  -0.81451  -0.81095
 Alpha  occ. eigenvalues --   -0.80734  -0.79858  -0.77989
 Alpha virt. eigenvalues --   -0.24169  -0.18179  -0.16093  -0.14885  -0.14347
 Alpha virt. eigenvalues --   -0.10586  -0.09768  -0.08331  -0.07512  -0.06641
 Alpha virt. eigenvalues --   -0.05867  -0.04853  -0.03864  -0.03044  -0.01903

 Mulliken charges:
               1
     1  Hg   1.385078
     2  H    0.509879
     3  O   -0.928068
     4  H    0.513333
     5  H    0.631941
     6  O   -1.104778
     7  H    0.605873
     8  H    0.528827
     9  O   -1.032376
    10  H    0.632959
    11  H    0.505915
    12  O   -0.958439
    13  H    0.508015
    14  H    0.529139
    15  O   -0.976233
    16  H    0.515117
    17  H    0.524010
    18  O   -0.911315
    19  H    0.521124
 Sum of Mulliken charges =   2.00000

 Dipole moment (field-independent basis, Debye):
    X=             -1.6166    Y=             -0.3772    Z=             -0.2898  Tot=              1.6851
 Quadrupole moment (field-independent basis, Debye-Ang):
   XX=             49.9712   YY=            -17.7109   ZZ=            -48.4964
   XY=             -4.5808   XZ=              2.1833   YZ=             -1.1830

  Exact polarizability:  70.521   1.000  56.005  -0.328  -0.178  45.381
 Approx polarizability:  39.604   0.541  35.512   0.751  -0.088  33.055

 ******    6 imaginary frequencies (negative Signs) ******

                      1                      2                      3
                      A                      A                      A
 Frequencies --   -351.4533              -329.5880              -314.0528
 Red. masses --      1.0214                 1.0226                 1.0332
 Frc consts  --      0.0743                 0.0654                 0.0600
 IR Inten    --     24.7311                25.0785                38.8333

                      4                      5                      6
                      A                      A                      A
 Frequencies --   -147.5973               -99.0133               -85.8066
 Red. masses --      1.4914                 2.2327                 2.6770
 Frc consts  --      0.0191                 0.0129                 0.0116
 IR Inten    --     13.8471                35.4038                21.9826

                      7                      8                      9
                      A                      A                      A
 Frequencies --     30.2469                50.9747                60.1073
 Red. masses --      4.8832                 5.2673                 4.9628
 Frc consts  --      0.0026                 0.0081                 0.0106
 IR Inten    --      6.3998                 7.8354                 8.0833

                     10                     11                     12
                      A                      A                      A
 Frequencies --    103.0132               113.3574               121.4356
 Red. masses --      4.7983                 5.2145                 4.6763
 Frc consts  --      0.0300                 0.0395                 0.0406
 IR Inten    --      0.4396                 5.5628                 5.4543

                     13                     14                     15
                      A                      A                      A
 Frequencies --    152.6073               223.9522               266.5931
 Red. masses --      1.9713                 5.7190                 1.7042
 Frc consts  --      0.0270                 0.1690                 0.0714
 IR Inten    --     10.4222                 8.5778                16.0156

                     16                     17                     18
                      A                      A                      A
 Frequencies --    270.2310               311.5661               363.9950
 Red. masses --      3.1081                 1.1832                 1.8284
 Frc consts  --      0.1337                 0.0677                 0.1427
 IR Inten    --     14.9277                88.8348                14.3536

                     19                     20                     21
                      A                      A                      A
 Frequencies --    371.5821               391.8623               466.6966
 Red. masses --      2.7356                 4.6782                 1.2279
 Frc consts  --      0.2225                 0.4232                 0.1576
 IR Inten    --    180.4021               114.8702                78.9435

                     22                     23                     24
                      A                      A                      A
 Frequencies --    495.8202               577.4467               616.5191
 Red. masses --      1.4187                 4.0590                 1.3724
 Frc consts  --      0.2055                 0.7974                 0.3073
 IR Inten    --     70.7879                66.3668               492.1350

                     25                     26                     27
                      A                      A                      A
 Frequencies --    637.8461               657.1854               671.6103
 Red. masses --      2.7153                 1.1550                 1.3213
 Frc consts  --      0.6509                 0.2939                 0.3511
 IR Inten    --    207.6584                80.0005               465.1585

                     28                     29                     30
                      A                      A                      A
 Frequencies --    709.6138               970.0968              1078.6308
 Red. masses --      1.1489                 1.0557                 1.0517
 Frc consts  --      0.3409                 0.5853                 0.7209
 IR Inten    --    427.3270                35.4962               169.7424

                     31                     32                     33
                      A                      A                      A
 Frequencies --   1210.0494              1330.9376              1407.0686
 Red. masses --      1.0517                 1.0537                 1.0668
 Frc consts  --      0.9073                 1.0997                 1.2444
 IR Inten    --    140.9564               192.8872               303.4398

                     34                     35                     36
                      A                      A                      A
 Frequencies --   1524.7800              1707.1223              1723.3107
 Red. masses --      1.1241                 1.0817                 1.0876
 Frc consts  --      1.5398                 1.8574                 1.9030
 IR Inten    --   2986.2804                57.1749               225.8901

                     37                     38                     39
                      A                      A                      A
 Frequencies --   1735.8598              1741.3414              1781.5338
 Red. masses --      1.0881                 1.0805                 1.0604
 Frc consts  --      1.9318                 1.9303                 1.9830
 IR Inten    --    135.6405               593.8304                38.7385

                     40                     41                     42
                      A                      A                      A
 Frequencies --   1797.8166              2240.8108              2930.4018
 Red. masses --      1.0643                 1.0892                 1.0736
 Frc consts  --      2.0268                 3.2222                 5.4316
 IR Inten    --    722.3546              3013.0091              1562.6810

                     43                     44                     45
                      A                      A                      A
 Frequencies --   3645.5247              3693.5059              3694.9742
 Red. masses --      1.0463                 1.0405                 1.0406
 Frc consts  --      8.1925                 8.3629                 8.3708
 IR Inten    --    187.9891                85.0620                24.6339

                     46                     47                     48
                      A                      A                      A
 Frequencies --   3713.8072              3715.5048              3796.3417
 Red. masses --      1.0413                 1.0644                 1.0830
 Frc consts  --      8.4621                 8.6571                 9.1965
 IR Inten    --     66.4593               145.9408               145.1228

                     49                     50                     51
                      A                      A                      A
 Frequencies --   3798.6294              3809.6324              3821.3741
 Red. masses --      1.0845                 1.0786                 1.0842
 Frc consts  --      9.2204                 9.2227                 9.3284
 IR Inten    --    189.6925               177.4973               169.1465

 - Thermochemistry -
 -------------------
 Temperature   298.150 Kelvin.  Pressure   1.00000 Atm.
 Atom     1 has atomic number 80 and mass 201.97060

 Molecular mass:   310.03399 amu.
 Principal axes and moments of inertia in atomic units:
                           1         2         3
     Eigenvalues --  1230.153992891.516843807.28977
           X            1.00000  -0.00083   0.00256
           Y            0.00084   0.99999  -0.00502
           Z           -0.00256   0.00502   0.99998
 This molecule is an asymmetric top.
 Rotational symmetry number  1.
 Warning -- assumption of classical behavior for rotation
           may cause significant error
 Rotational temperatures (Kelvin)      0.07041     0.02995     0.02275
 Rotational constants (GHZ):           1.46709     0.62415     0.47402
    6 imaginary frequencies ignored.
 Zero-point vibrational energy     385995.0 (Joules/Mol)
                                   92.25501 (Kcal/Mol)
 Warning -- explicit consideration of  18 degrees of freedom as
           vibrations may cause significant error
 Vibrational temperatures:     43.52    73.34    86.48   148.21   163.10
          (Kelvin)            174.72   219.57   322.22   383.57   388.80
                              448.27   523.71   534.62   563.80   671.47
                              713.37   830.82   887.03   917.72   945.54
                              966.30  1020.98  1395.75  1551.91  1740.99
                             1914.92  2024.46  2193.82  2456.17  2479.46
                             2497.52  2505.40  2563.23  2586.66  3224.03
                             4216.19  5245.10  5314.13  5316.24  5343.34
                             5345.78  5462.09  5465.38  5481.21  5498.11

 Zero-point correction=                           0.147018 (Hartree/Particle)
 Thermal correction to Energy=                    0.159422
 Thermal correction to Enthalpy=                  0.160366
 Thermal correction to Gibbs Free Energy=         0.105672
 Sum of electronic and zero-point Energies=           -254.224776
 Sum of electronic and thermal Energies=              -254.212372
 Sum of electronic and thermal Enthalpies=            -254.211428
 Sum of electronic and thermal Free Energies=         -254.266122

                     E (Thermal)             CV                S
                      KCal/Mol        Cal/Mol-Kelvin    Cal/Mol-Kelvin
 Total                  100.039             40.721            115.113
 Electronic               0.000              0.000              0.000
 Translational            0.889              2.981             43.091
 Rotational               0.889              2.981             30.983
 Vibrational             98.261             34.760             41.040
 Vibration     1          0.594              1.984              5.813
 Vibration     2          0.595              1.977              4.779
 Vibration     3          0.597              1.973              4.454
 Vibration     4          0.605              1.947              3.396
 Vibration     5          0.607              1.938              3.211
 Vibration     6          0.609              1.931              3.077
 Vibration     7          0.619              1.900              2.639
 Vibration     8          0.649              1.805              1.927
 Vibration     9          0.672              1.734              1.618
 Vibration    10          0.674              1.728              1.595
 Vibration    11          0.700              1.652              1.354
 Vibration    12          0.738              1.546              1.105
 Vibration    13          0.743              1.531              1.073
 Vibration    14          0.759              1.488              0.993
 Vibration    15          0.824              1.324              0.747
 Vibration    16          0.851              1.259              0.669
 Vibration    17          0.934              1.080              0.490
 Vibration    18          0.976              0.997              0.422

 Normal termination of Gaussian 16 at Wed May 11 22:07:45 2022.
