 Gaussian 16, Revision A.03,
 Gaussian 16:  ES64L-G16RevA.03 25-Dec-2016

 ------------------------
 #p MP2(full) SDDAll freq
 ------------------------

 file 'w6s13.log' Now we use Def2-QZVPPD, but it was opt at: ---'ZORA-S
 R+SO PBE QZ4P'---
 ----------------------------------------------------------------------
 Symbolic Z-matrix:
 Charge =  2 Multiplicity = 1

                         Standard orientation:
 ---------------------------------------------------------------------
 Center     Atomic      Atomic             Coordinates (Angstroms)
 Number     Number       Type             X           Y           Z
 ---------------------------------------------------------------------
      1         80           0       -0.069222   -0.255830   -0.191169
      2          8           0        3.400609    1.515184    0.080144
      3          1           0        4.192982    1.294306    0.604782
      4          1           0        3.671249    2.263317   -0.484209
      5          8           0       -2.186389   -0.284147   -0.426963
      6          1           0       -2.764969    0.599477   -0.226954
      7          1           0       -2.488899   -0.678594   -1.265804
      8          8           0        2.025737   -0.549805   -0.815138
      9          1           0        2.631367    0.235824   -0.599645
     10          1           0        2.184534   -0.821195   -1.738707
     11          8           0        0.017524   -2.030991    1.462135
     12          1           0        0.771478   -2.642446    1.532845
     13          1           0       -0.771303   -2.551584    1.696675
     14          8           0        0.756909    1.562120    1.090119
     15          1           0        1.723656    1.725545    0.984854
     16          1           0        0.555027    1.628104    2.040344
     17          8           0       -3.522692    1.722498    0.172558
     18          1           0       -3.800536    2.382069   -0.487982
     19          1           0       -4.300429    1.552675    0.734452
 ---------------------------------------------------------------------

 SCF Done:  E(RHF) =  -253.454554773     A.U. after   14 cycles
 E2 =    -0.9169164189D+00 EUMP2 =    -0.25437147119186D+03
 E2 =    -0.9169164189D+00 EUMP2 =    -0.25437147119186D+03

 The electronic state is 1-A.
 Alpha  occ. eigenvalues --   -5.40469  -3.40188  -3.40082  -3.39907  -1.69498
 Alpha  occ. eigenvalues --   -1.68264  -1.67395  -1.66311  -1.66159  -1.65301
 Alpha  occ. eigenvalues --   -1.06609  -1.05449  -1.04007  -1.02471  -1.01935
 Alpha  occ. eigenvalues --   -1.01677  -1.01160  -0.99745  -0.98206  -0.97405
 Alpha  occ. eigenvalues --   -0.97286  -0.93906  -0.92720  -0.89144  -0.87523
 Alpha  occ. eigenvalues --   -0.86223  -0.84718  -0.83383  -0.82352  -0.81950
 Alpha  occ. eigenvalues --   -0.81176  -0.80390  -0.79349
 Alpha virt. eigenvalues --   -0.25644  -0.16786  -0.16211  -0.15796  -0.15207
 Alpha virt. eigenvalues --   -0.10828  -0.09552  -0.08922  -0.07856  -0.07033
 Alpha virt. eigenvalues --   -0.04973  -0.04489  -0.03831  -0.02772  -0.02015

 Mulliken charges:
               1
     1  Hg   1.364607
     2  O   -0.969784
     3  H    0.514801
     4  H    0.512836
     5  O   -1.024803
     6  H    0.622493
     7  H    0.523018
     8  O   -0.978132
     9  H    0.589595
    10  H    0.530060
    11  O   -0.937326
    12  H    0.514630
    13  H    0.515168
    14  O   -0.949961
    15  H    0.546634
    16  H    0.517328
    17  O   -0.912649
    18  H    0.508978
    19  H    0.512504
 Sum of Mulliken charges =   2.00000

 Dipole moment (field-independent basis, Debye):
    X=              0.8559    Y=              2.1871    Z=             -1.1235  Tot=              2.6035
 Quadrupole moment (field-independent basis, Debye-Ang):
   XX=             28.0400   YY=            -26.1586   ZZ=            -36.5781
   XY=              1.9053   XZ=              1.8378   YZ=             -2.9457

  Exact polarizability:  66.752  -0.270  53.463  -1.556   0.593  48.005
 Approx polarizability:  38.525  -0.039  33.698  -1.174   0.018  33.226

 ******    7 imaginary frequencies (negative Signs) ******

                      1                      2                      3
                      A                      A                      A
 Frequencies --   -378.3985              -337.9601              -288.2634
 Red. masses --      1.0201                 1.0299                 1.0315
 Frc consts  --      0.0861                 0.0693                 0.0505
 IR Inten    --     12.2003                40.7990                29.7526

                      4                      5                      6
                      A                      A                      A
 Frequencies --   -129.8217               -99.3544               -77.0854
 Red. masses --      1.8846                 2.6418                 2.5857
 Frc consts  --      0.0187                 0.0154                 0.0091
 IR Inten    --     20.8746                 1.5557                17.3014

                      7                      8                      9
                      A                      A                      A
 Frequencies --    -59.2859                34.0256                61.7599
 Red. masses --      3.2162                 5.4205                 5.2211
 Frc consts  --      0.0067                 0.0037                 0.0117
 IR Inten    --     13.2713                10.2734                 7.9119

                     10                     11                     12
                      A                      A                      A
 Frequencies --     81.1344               113.2004               129.9598
 Red. masses --      6.2010                 4.5864                 1.6228
 Frc consts  --      0.0241                 0.0346                 0.0161
 IR Inten    --      2.9069                 7.0359                55.7195

                     13                     14                     15
                      A                      A                      A
 Frequencies --    151.4837               236.5481               271.3616
 Red. masses --      4.8034                 5.0919                 3.8959
 Frc consts  --      0.0649                 0.1679                 0.1690
 IR Inten    --      1.9439                 3.0203                10.0892

                     16                     17                     18
                      A                      A                      A
 Frequencies --    274.2941               287.0251               332.4748
 Red. masses --      1.3712                 2.2198                 2.2589
 Frc consts  --      0.0608                 0.1077                 0.1471
 IR Inten    --     82.2994                26.5199                27.3363

                     19                     20                     21
                      A                      A                      A
 Frequencies --    343.9561               412.9918               422.9780
 Red. masses --      3.9147                 1.8887                 2.2460
 Frc consts  --      0.2729                 0.1898                 0.2368
 IR Inten    --     82.7947                24.0197                92.7231

                     22                     23                     24
                      A                      A                      A
 Frequencies --    459.0621               469.9590               545.0113
 Red. masses --      1.3269                 1.4078                 3.8787
 Frc consts  --      0.1647                 0.1832                 0.6788
 IR Inten    --     85.4124                78.6122                16.0305

                     25                     26                     27
                      A                      A                      A
 Frequencies --    570.0914               598.3969               650.1989
 Red. masses --      1.2136                 1.1199                 1.1701
 Frc consts  --      0.2324                 0.2363                 0.2915
 IR Inten    --    347.2983               116.9594               405.0214

                     28                     29                     30
                      A                      A                      A
 Frequencies --    690.6066               788.0946               840.6590
 Red. masses --      1.1208                 1.1136                 1.0897
 Frc consts  --      0.3150                 0.4075                 0.4537
 IR Inten    --    193.3327               470.6605               252.3376

                     31                     32                     33
                      A                      A                      A
 Frequencies --    903.8687              1096.1390              1357.9912
 Red. masses --      1.0749                 1.0618                 1.0523
 Frc consts  --      0.5174                 0.7516                 1.1434
 IR Inten    --    116.9711               237.1852               197.1079

                     34                     35                     36
                      A                      A                      A
 Frequencies --   1717.0655              1725.4880              1735.1073
 Red. masses --      1.0899                 1.0890                 1.0821
 Frc consts  --      1.8932                 1.9103                 1.9194
 IR Inten    --    118.2292               148.2311               131.7990

                     37                     38                     39
                      A                      A                      A
 Frequencies --   1738.9472              1771.9404              1776.1006
 Red. masses --      1.0870                 1.0717                 1.0694
 Frc consts  --      1.9367                 1.9826                 1.9875
 IR Inten    --    176.0471                61.6779                27.1057

                     40                     41                     42
                      A                      A                      A
 Frequencies --   2073.8043              3009.2040              3520.1763
 Red. masses --      1.0808                 1.0641                 1.0530
 Frc consts  --      2.7387                 5.6775                 7.6881
 IR Inten    --   3385.4387              1203.1742               437.3786

                     43                     44                     45
                      A                      A                      A
 Frequencies --   3689.3137              3701.4396              3707.9620
 Red. masses --      1.0407                 1.0405                 1.0402
 Frc consts  --      8.3457                 8.3994                 8.4265
 IR Inten    --     42.5680                66.2974                55.8210

                     46                     47                     48
                      A                      A                      A
 Frequencies --   3731.2204              3733.4538              3772.4911
 Red. masses --      1.0654                 1.0658                 1.0721
 Frc consts  --      8.7394                 8.7528                 8.9897
 IR Inten    --     40.7021               269.2996               161.6770

                     49                     50                     51
                      A                      A                      A
 Frequencies --   3787.1667              3806.9575              3816.8369
 Red. masses --      1.0830                 1.0840                 1.0842
 Frc consts  --      9.1517                 9.2560                 9.3058
 IR Inten    --    159.9483               168.0056               152.8448

 - Thermochemistry -
 -------------------
 Temperature   298.150 Kelvin.  Pressure   1.00000 Atm.
 Atom     1 has atomic number 80 and mass 201.97060

 Molecular mass:   310.03399 amu.
 Principal axes and moments of inertia in atomic units:
                           1         2         3
     Eigenvalues --  1195.613782576.631753121.09600
           X            1.00000   0.00039   0.00028
           Y           -0.00039   0.99978  -0.02085
           Z           -0.00029   0.02085   0.99978
 This molecule is an asymmetric top.
 Rotational symmetry number  1.
 Warning -- assumption of classical behavior for rotation
           may cause significant error
 Rotational temperatures (Kelvin)      0.07244     0.03362     0.02775
 Rotational constants (GHZ):           1.50947     0.70043     0.57824
    7 imaginary frequencies ignored.
 Zero-point vibrational energy     388415.2 (Joules/Mol)
                                   92.83346 (Kcal/Mol)
 Warning -- explicit consideration of  19 degrees of freedom as
           vibrations may cause significant error
 Vibrational temperatures:     48.96    88.86   116.73   162.87   186.98
          (Kelvin)            217.95   340.34   390.43   394.65   412.97
                              478.36   494.88   594.20   608.57   660.49
                              676.17   784.15   820.23   860.96   935.49
                              993.63  1133.89  1209.52  1300.47  1577.10
                             1953.85  2470.47  2482.59  2496.43  2501.96
                             2549.43  2555.41  2983.74  4329.57  5064.75
                             5308.10  5325.55  5334.93  5368.39  5371.61
                             5427.77  5448.89  5477.36  5491.58

 Zero-point correction=                           0.147940 (Hartree/Particle)
 Thermal correction to Energy=                    0.159971
 Thermal correction to Enthalpy=                  0.160916
 Thermal correction to Gibbs Free Energy=         0.107960
 Sum of electronic and zero-point Energies=           -254.223532
 Sum of electronic and thermal Energies=              -254.211500
 Sum of electronic and thermal Enthalpies=            -254.210556
 Sum of electronic and thermal Free Energies=         -254.263511

                     E (Thermal)             CV                S
                      KCal/Mol        Cal/Mol-Kelvin    Cal/Mol-Kelvin
 Total                  100.384             40.699            111.454
 Electronic               0.000              0.000              0.000
 Translational            0.889              2.981             43.091
 Rotational               0.889              2.981             30.642
 Vibrational             98.606             34.738             37.721
 Vibration     1          0.594              1.983              5.580
 Vibration     2          0.597              1.973              4.400
 Vibration     3          0.600              1.962              3.863
 Vibration     4          0.607              1.939              3.213
 Vibration     5          0.612              1.923              2.947
 Vibration     6          0.619              1.901              2.654
 Vibration     7          0.655              1.785              1.829
 Vibration     8          0.675              1.726              1.588
 Vibration     9          0.677              1.721              1.569
 Vibration    10          0.684              1.698              1.491
 Vibration    11          0.714              1.611              1.248
 Vibration    12          0.723              1.588              1.194
 Vibration    13          0.777              1.442              0.916
 Vibration    14          0.785              1.420              0.882
 Vibration    15          0.817              1.341              0.769
 Vibration    16          0.827              1.317              0.738
 Vibration    17          0.900              1.151              0.555
 Vibration    18          0.926              1.096              0.504
 Vibration    19          0.956              1.035              0.452

 Normal termination of Gaussian 16 at Wed May 11 22:02:16 2022.
