 Gaussian 16, Revision A.03,
 Gaussian 16:  ES64L-G16RevA.03 25-Dec-2016

 ------------------------
 #p MP2(full) SDDAll freq
 ------------------------

 file 'w6s10.log' Now we use Def2-QZVPPD, but it was opt at: ---'ZORA-S
 R+SO PBE QZ4P'---
 ----------------------------------------------------------------------
 Symbolic Z-matrix:
 Charge =  2 Multiplicity = 1

                         Standard orientation:
 ---------------------------------------------------------------------
 Center     Atomic      Atomic             Coordinates (Angstroms)
 Number     Number       Type             X           Y           Z
 ---------------------------------------------------------------------
      1         80           0       -0.221213   -0.070041   -0.025550
      2          8           0        0.809769   -2.326064   -0.169976
      3          1           0        1.773775   -2.359713   -0.007929
      4          1           0        0.445586   -3.185159    0.105009
      5          8           0        3.435820   -1.134355    0.215711
      6          1           0        3.965209   -1.268574    1.023601
      7          1           0        4.075101   -1.183187   -0.518499
      8          8           0        2.005639    3.108841   -0.251732
      9          1           0        2.238060    3.723420    0.466681
     10          1           0        2.518069    3.387820   -1.030448
     11          8           0       -2.175015   -0.643425   -0.300319
     12          1           0       -3.041601    0.008914   -0.044071
     13          1           0       -2.331436   -1.121603   -1.135696
     14          8           0        1.606907    0.733497    0.394812
     15          1           0        1.824648    1.724329    0.076844
     16          1           0        2.381006    0.080516    0.274712
     17          8           0       -4.045885    0.781510    0.374246
     18          1           0       -4.661824    0.387462    1.019478
     19          1           0       -4.587422    1.249023   -0.287590
 ---------------------------------------------------------------------

 SCF Done:  E(RHF) =  -253.449938777     A.U. after   14 cycles
 E2 =    -0.9220201053D+00 EUMP2 =    -0.25437195888256D+03
 E2 =    -0.9220201053D+00 EUMP2 =    -0.25437195888256D+03

 The electronic state is 1-A.
 Alpha  occ. eigenvalues --   -5.41316  -3.41006  -3.40622  -3.40363  -1.69567
 Alpha  occ. eigenvalues --   -1.67698  -1.66561  -1.66072  -1.64440  -1.63942
 Alpha  occ. eigenvalues --   -1.07359  -1.06512  -1.04993  -1.02835  -1.01257
 Alpha  occ. eigenvalues --   -1.00817  -1.00370  -0.99768  -0.98329  -0.97697
 Alpha  occ. eigenvalues --   -0.97306  -0.93023  -0.91377  -0.88247  -0.86800
 Alpha  occ. eigenvalues --   -0.85773  -0.84218  -0.82722  -0.81557  -0.81247
 Alpha  occ. eigenvalues --   -0.80523  -0.80139  -0.77984
 Alpha virt. eigenvalues --   -0.23901  -0.18009  -0.16036  -0.15043  -0.14368
 Alpha virt. eigenvalues --   -0.10669  -0.09360  -0.08187  -0.07721  -0.06333
 Alpha virt. eigenvalues --   -0.05665  -0.04849  -0.04124  -0.03053  -0.01915

 Mulliken charges:
               1
     1  Hg   1.384160
     2  O   -0.970209
     3  H    0.529453
     4  H    0.513945
     5  O   -0.960190
     6  H    0.508407
     7  H    0.506259
     8  O   -0.926525
     9  H    0.512557
    10  H    0.509345
    11  O   -1.049470
    12  H    0.635064
    13  H    0.533233
    14  O   -1.099219
    15  H    0.631104
    16  H    0.605263
    17  O   -0.905476
    18  H    0.522971
    19  H    0.519327
 Sum of Mulliken charges =   2.00000

 Dipole moment (field-independent basis, Debye):
    X=              1.2794    Y=              1.4763    Z=             -1.1888  Tot=              2.2868
 Quadrupole moment (field-independent basis, Debye-Ang):
   XX=             49.5473   YY=            -16.4052   ZZ=            -49.2036
   XY=              1.5345   XZ=              1.6869   YZ=             -3.9664

  Exact polarizability:  70.164   0.021  57.538  -0.173   0.149  44.060
 Approx polarizability:  39.410  -0.146  35.463  -0.815  -0.282  33.143

 ******    6 imaginary frequencies (negative Signs) ******

                      1                      2                      3
                      A                      A                      A
 Frequencies --   -349.4698              -333.6460              -311.5000
 Red. masses --      1.0222                 1.0273                 1.0343
 Frc consts  --      0.0736                 0.0674                 0.0591
 IR Inten    --     25.4342                31.7092                47.8198

                      4                      5                      6
                      A                      A                      A
 Frequencies --   -150.2425               -99.3370               -95.2140
 Red. masses --      1.5200                 2.3895                 2.3367
 Frc consts  --      0.0202                 0.0139                 0.0125
 IR Inten    --     17.2203                14.6248                36.6665

                      7                      8                      9
                      A                      A                      A
 Frequencies --     21.3350                53.0037                74.8214
 Red. masses --      5.2167                 5.4445                 5.1279
 Frc consts  --      0.0014                 0.0090                 0.0169
 IR Inten    --      7.2222                 8.7670                 1.9309

                     10                     11                     12
                      A                      A                      A
 Frequencies --     98.9893               113.8627               118.0147
 Red. masses --      4.7846                 5.0538                 5.1845
 Frc consts  --      0.0276                 0.0386                 0.0425
 IR Inten    --      5.1644                 8.3744                 1.2289

                     13                     14                     15
                      A                      A                      A
 Frequencies --    151.9054               221.3675               259.2609
 Red. masses --      1.7314                 5.1583                 2.8457
 Frc consts  --      0.0235                 0.1489                 0.1127
 IR Inten    --      6.2515                13.3927                 8.6788

                     16                     17                     18
                      A                      A                      A
 Frequencies --    277.8200               302.0194               365.6763
 Red. masses --      1.8496                 1.2121                 2.1093
 Frc consts  --      0.0841                 0.0651                 0.1662
 IR Inten    --     15.5993                88.2590                33.7761

                     19                     20                     21
                      A                      A                      A
 Frequencies --    372.1337               391.6015               451.9627
 Red. masses --      2.4402                 4.4442                 1.3417
 Frc consts  --      0.1991                 0.4015                 0.1615
 IR Inten    --    130.7483               112.3024                63.9941

                     22                     23                     24
                      A                      A                      A
 Frequencies --    491.2123               580.5708               616.4812
 Red. masses --      1.2754                 4.3875                 1.3385
 Frc consts  --      0.1813                 0.8713                 0.2997
 IR Inten    --    115.1349               180.2109               306.2377

                     25                     26                     27
                      A                      A                      A
 Frequencies --    637.5009               671.0836               677.7859
 Red. masses --      2.3840                 1.2284                 1.3484
 Frc consts  --      0.5708                 0.3259                 0.3650
 IR Inten    --    191.7794               447.6663               180.3524

                     28                     29                     30
                      A                      A                      A
 Frequencies --    709.0558               973.9261              1077.3712
 Red. masses --      1.1427                 1.0568                 1.0516
 Frc consts  --      0.3385                 0.5906                 0.7192
 IR Inten    --    470.8237                43.7012               157.2069

                     31                     32                     33
                      A                      A                      A
 Frequencies --   1212.8184              1330.5311              1415.7444
 Red. masses --      1.0522                 1.0539                 1.0708
 Frc consts  --      0.9119                 1.0993                 1.2646
 IR Inten    --    109.1282               209.1140               385.1750

                     34                     35                     36
                      A                      A                      A
 Frequencies --   1515.9438              1711.0017              1724.8701
 Red. masses --      1.1185                 1.0820                 1.0865
 Frc consts  --      1.5145                 1.8663                 1.9045
 IR Inten    --   2854.5404                94.3624               208.8730

                     37                     38                     39
                      A                      A                      A
 Frequencies --   1736.0343              1741.9207              1781.2035
 Red. masses --      1.0881                 1.0826                 1.0601
 Frc consts  --      1.9320                 1.9353                 1.9817
 IR Inten    --    152.4423               669.9497                25.5876

                     40                     41                     42
                      A                      A                      A
 Frequencies --   1792.0277              2243.0257              2929.6972
 Red. masses --      1.0655                 1.0891                 1.0733
 Frc consts  --      2.0159                 3.2284                 5.4277
 IR Inten    --    586.3881              3196.4155              1516.0297

                     43                     44                     45
                      A                      A                      A
 Frequencies --   3644.8637              3692.6279              3694.8047
 Red. masses --      1.0457                 1.0405                 1.0406
 Frc consts  --      8.1853                 8.3592                 8.3697
 IR Inten    --    185.8191                86.6263                22.3371

                     46                     47                     48
                      A                      A                      A
 Frequencies --   3712.3000              3728.4394              3795.6043
 Red. masses --      1.0405                 1.0655                 1.0830
 Frc consts  --      8.4488                 8.7270                 9.1931
 IR Inten    --     63.4290               151.0677               135.0140

                     49                     50                     51
                      A                      A                      A
 Frequencies --   3796.8612              3799.1787              3819.9670
 Red. masses --      1.0843                 1.0790                 1.0842
 Frc consts  --      9.2099                 9.1761                 9.3216
 IR Inten    --    196.4311               185.3472               168.6609

 - Thermochemistry -
 -------------------
 Temperature   298.150 Kelvin.  Pressure   1.00000 Atm.
 Atom     1 has atomic number 80 and mass 201.97060

 Molecular mass:   310.03399 amu.
 Principal axes and moments of inertia in atomic units:
                           1         2         3
     Eigenvalues --  1255.968352784.501273942.89932
           X            1.00000  -0.00153   0.00050
           Y            0.00153   0.99999  -0.00413
           Z           -0.00049   0.00413   0.99999
 This molecule is an asymmetric top.
 Rotational symmetry number  1.
 Warning -- assumption of classical behavior for rotation
           may cause significant error
 Rotational temperatures (Kelvin)      0.06896     0.03111     0.02197
 Rotational constants (GHZ):           1.43693     0.64814     0.45772
    6 imaginary frequencies ignored.
 Zero-point vibrational energy     385964.5 (Joules/Mol)
                                   92.24773 (Kcal/Mol)
 Warning -- explicit consideration of  18 degrees of freedom as
           vibrations may cause significant error
 Vibrational temperatures:     30.70    76.26   107.65   142.42   163.82
          (Kelvin)            169.80   218.56   318.50   373.02   399.72
                              434.54   526.13   535.42   563.43   650.27
                              706.74   835.31   886.98   917.22   965.54
                              975.18  1020.17  1401.26  1550.10  1744.98
                             1914.34  2036.94  2181.11  2461.75  2481.70
                             2497.77  2506.24  2562.75  2578.33  3227.21
                             4215.18  5244.15  5312.87  5316.00  5341.17
                             5364.39  5461.03  5462.84  5466.17  5496.08

 Zero-point correction=                           0.147006 (Hartree/Particle)
 Thermal correction to Energy=                    0.159428
 Thermal correction to Enthalpy=                  0.160372
 Thermal correction to Gibbs Free Energy=         0.105478
 Sum of electronic and zero-point Energies=           -254.224953
 Sum of electronic and thermal Energies=              -254.212531
 Sum of electronic and thermal Enthalpies=            -254.211587
 Sum of electronic and thermal Free Energies=         -254.266481

                     E (Thermal)             CV                S
                      KCal/Mol        Cal/Mol-Kelvin    Cal/Mol-Kelvin
 Total                  100.042             40.731            115.535
 Electronic               0.000              0.000              0.000
 Translational            0.889              2.981             43.091
 Rotational               0.889              2.981             31.001
 Vibrational             98.265             34.769             41.443
 Vibration     1          0.593              1.985              6.506
 Vibration     2          0.596              1.976              4.702
 Vibration     3          0.599              1.966              4.022
 Vibration     4          0.604              1.950              3.474
 Vibration     5          0.607              1.938              3.202
 Vibration     6          0.608              1.934              3.133
 Vibration     7          0.619              1.901              2.648
 Vibration     8          0.648              1.809              1.948
 Vibration     9          0.668              1.747              1.667
 Vibration    10          0.679              1.715              1.547
 Vibration    11          0.694              1.670              1.406
 Vibration    12          0.739              1.543              1.098
 Vibration    13          0.744              1.529              1.071
 Vibration    14          0.759              1.488              0.994
 Vibration    15          0.811              1.357              0.790
 Vibration    16          0.847              1.270              0.680
 Vibration    17          0.937              1.073              0.484
 Vibration    18          0.976              0.997              0.422

 Normal termination of Gaussian 16 at Wed May 11 21:56:37 2022.
