 Gaussian 16, Revision A.03,
 Gaussian 16:  ES64L-G16RevA.03 25-Dec-2016

 ------------------------
 #p MP2(full) SDDAll freq
 ------------------------

 file 'w6s11.log' Now we use Def2-QZVPPD, but it was opt at: ---'ZORA-S
 R+SO PBE QZ4P'---
 ----------------------------------------------------------------------
 Symbolic Z-matrix:
 Charge =  2 Multiplicity = 1

                         Standard orientation:
 ---------------------------------------------------------------------
 Center     Atomic      Atomic             Coordinates (Angstroms)
 Number     Number       Type             X           Y           Z
 ---------------------------------------------------------------------
      1         80           0       -0.160257   -0.275447   -0.041467
      2          1           0        3.928829   -2.037965   -0.735746
      3          8           0        3.319111   -1.972821    0.019872
      4          1           0        3.785421   -2.351396    0.786354
      5          1           0       -2.228181   -1.797623   -0.487011
      6          8           0       -2.100939   -0.832321   -0.436248
      7          1           0       -2.986106   -0.349680    0.034203
      8          1           0        2.177747    0.892869    0.276823
      9          8           0        1.810671   -0.038526    0.453308
     10          1           0        2.493346   -0.824467    0.228063
     11          1           0        0.531748    2.649495   -0.271524
     12          8           0       -0.323863    2.173718   -0.322563
     13          1           0       -0.894892    2.680774   -0.924272
     14          1           0       -4.451099    0.015268    1.348134
     15          8           0       -4.045481    0.313632    0.512771
     16          1           0       -4.774139    0.480676   -0.113716
     17          1           0        2.807393    2.924694    0.936960
     18          8           0        2.504585    2.478451    0.124322
     19          1           0        3.117858    2.776078   -0.572604
 ---------------------------------------------------------------------

 SCF Done:  E(RHF) =  -253.448838732     A.U. after   14 cycles
 E2 =    -0.9221961948D+00 EUMP2 =    -0.25437103492691D+03
 E2 =    -0.9221961948D+00 EUMP2 =    -0.25437103492691D+03

 The electronic state is 1-A.
 Alpha  occ. eigenvalues --   -5.41371  -3.41059  -3.40660  -3.40457  -1.69556
 Alpha  occ. eigenvalues --   -1.67717  -1.66633  -1.66137  -1.64478  -1.63967
 Alpha  occ. eigenvalues --   -1.07427  -1.05838  -1.05697  -1.02776  -1.01283
 Alpha  occ. eigenvalues --   -1.00899  -1.00483  -0.99637  -0.98434  -0.97471
 Alpha  occ. eigenvalues --   -0.96746  -0.94669  -0.91241  -0.87801  -0.86515
 Alpha  occ. eigenvalues --   -0.86022  -0.83699  -0.83463  -0.81517  -0.81117
 Alpha  occ. eigenvalues --   -0.80718  -0.80173  -0.78027
 Alpha virt. eigenvalues --   -0.24067  -0.18157  -0.16257  -0.14771  -0.14358
 Alpha virt. eigenvalues --   -0.10795  -0.09669  -0.08215  -0.07927  -0.06654
 Alpha virt. eigenvalues --   -0.05485  -0.04902  -0.03727  -0.03253  -0.01724

 Mulliken charges:
               1
     1  Hg   1.389430
     2  H    0.510799
     3  O   -0.928470
     4  H    0.513939
     5  H    0.531997
     6  O   -1.048565
     7  H    0.634025
     8  H    0.602791
     9  O   -1.100503
    10  H    0.631438
    11  H    0.531882
    12  O   -0.970908
    13  H    0.512190
    14  H    0.517972
    15  O   -0.903527
    16  H    0.521597
    17  H    0.509197
    18  O   -0.961814
    19  H    0.506532
 Sum of Mulliken charges =   2.00000

 Dipole moment (field-independent basis, Debye):
    X=              1.3470    Y=              0.9628    Z=             -0.3207  Tot=              1.6865
 Quadrupole moment (field-independent basis, Debye-Ang):
   XX=             50.8006   YY=            -18.4576   ZZ=            -49.3768
   XY=              6.3238   XZ=             -4.8506   YZ=             -4.2809

  Exact polarizability:  71.593  -1.477  55.764   1.034  -0.229  44.422
 Approx polarizability:  40.036  -1.057  34.933   0.129  -0.453  33.114

 ******    6 imaginary frequencies (negative Signs) ******

                      1                      2                      3
                      A                      A                      A
 Frequencies --   -344.3279              -326.2469              -300.1744
 Red. masses --      1.0221                 1.0266                 1.0430
 Frc consts  --      0.0714                 0.0644                 0.0554
 IR Inten    --     25.6430                31.1058                44.0060

                      4                      5                      6
                      A                      A                      A
 Frequencies --   -158.4356              -105.7890               -83.8699
 Red. masses --      1.4616                 2.4483                 2.4027
 Frc consts  --      0.0216                 0.0161                 0.0100
 IR Inten    --      9.6336                 8.6609                49.2774

                      7                      8                      9
                      A                      A                      A
 Frequencies --     15.7341                53.8714                67.6599
 Red. masses --      5.2238                 5.1708                 4.3664
 Frc consts  --      0.0008                 0.0088                 0.0118
 IR Inten    --      7.9217                 5.0573                 8.1940

                     10                     11                     12
                      A                      A                      A
 Frequencies --     98.0724               115.3798               133.6612
 Red. masses --      4.6759                 6.0807                 4.5581
 Frc consts  --      0.0265                 0.0477                 0.0480
 IR Inten    --      1.9018                 5.0099                 2.9808

                     13                     14                     15
                      A                      A                      A
 Frequencies --    156.5403               227.9937               269.5947
 Red. masses --      2.0825                 5.6937                 3.9022
 Frc consts  --      0.0301                 0.1744                 0.1671
 IR Inten    --      7.1717                 8.6239                14.6795

                     16                     17                     18
                      A                      A                      A
 Frequencies --    272.4495               311.5543               365.8647
 Red. masses --      1.5659                 1.2651                 2.4363
 Frc consts  --      0.0685                 0.0723                 0.1921
 IR Inten    --      9.1886                99.0892                97.5983

                     19                     20                     21
                      A                      A                      A
 Frequencies --    370.0155               392.2113               464.7165
 Red. masses --      1.7517                 4.5467                 1.4406
 Frc consts  --      0.1413                 0.4121                 0.1833
 IR Inten    --     67.3756               149.0771                58.9056

                     22                     23                     24
                      A                      A                      A
 Frequencies --    492.2132               577.5344               620.6344
 Red. masses --      1.1876                 4.2118                 1.4625
 Frc consts  --      0.1695                 0.8277                 0.3319
 IR Inten    --     85.0225                61.1067               586.4732

                     25                     26                     27
                      A                      A                      A
 Frequencies --    636.7602               671.0373               682.5106
 Red. masses --      2.5736                 1.1561                 1.2932
 Frc consts  --      0.6148                 0.3067                 0.3549
 IR Inten    --     46.0350               124.9152               328.5868

                     28                     29                     30
                      A                      A                      A
 Frequencies --    727.4161               960.7578              1058.4876
 Red. masses --      1.1240                 1.0572                 1.0532
 Frc consts  --      0.3504                 0.5750                 0.6952
 IR Inten    --    545.9223                55.1156               182.1403

                     31                     32                     33
                      A                      A                      A
 Frequencies --   1202.8994              1331.8126              1457.8133
 Red. masses --      1.0516                 1.0537                 1.0552
 Frc consts  --      0.8965                 1.1011                 1.3213
 IR Inten    --    129.3555               210.4490               185.1665

                     34                     35                     36
                      A                      A                      A
 Frequencies --   1524.5108              1707.9060              1715.5630
 Red. masses --      1.1340                 1.0808                 1.0831
 Frc consts  --      1.5528                 1.8575                 1.8781
 IR Inten    --   3074.8962                 7.9539               845.7187

                     37                     38                     39
                      A                      A                      A
 Frequencies --   1729.4653              1737.0097              1781.1314
 Red. masses --      1.0859                 1.0876                 1.0613
 Frc consts  --      1.9137                 1.9335                 1.9837
 IR Inten    --    104.0120                65.8305                84.5003

                     40                     41                     42
                      A                      A                      A
 Frequencies --   1794.5309              2216.7355              2983.0215
 Red. masses --      1.0662                 1.0894                 1.0729
 Frc consts  --      2.0229                 3.1541                 5.6250
 IR Inten    --    792.8169              2947.6308              1451.3715

                     43                     44                     45
                      A                      A                      A
 Frequencies --   3613.4154              3685.7919              3693.2428
 Red. masses --      1.0488                 1.0404                 1.0406
 Frc consts  --      8.0681                 8.3276                 8.3628
 IR Inten    --    245.5099                82.6055                29.2741

                     46                     47                     48
                      A                      A                      A
 Frequencies --   3710.5101              3730.2990              3790.3493
 Red. masses --      1.0405                 1.0654                 1.0844
 Frc consts  --      8.4407                 8.7348                 9.1788
 IR Inten    --     60.9590               156.6290               177.1760

                     49                     50                     51
                      A                      A                      A
 Frequencies --   3793.8798              3800.3181              3818.3214
 Red. masses --      1.0831                 1.0759                 1.0842
 Frc consts  --      9.1849                 9.1552                 9.3134
 IR Inten    --    150.3477               171.2703               170.8624

 - Thermochemistry -
 -------------------
 Temperature   298.150 Kelvin.  Pressure   1.00000 Atm.
 Atom     1 has atomic number 80 and mass 201.97060

 Molecular mass:   310.03399 amu.
 Principal axes and moments of inertia in atomic units:
                           1         2         3
     Eigenvalues --  1168.004132867.545223904.83018
           X            1.00000   0.00044  -0.00246
           Y           -0.00046   0.99998  -0.00639
           Z            0.00245   0.00639   0.99998
 This molecule is an asymmetric top.
 Rotational symmetry number  1.
 Warning -- assumption of classical behavior for rotation
           may cause significant error
 Rotational temperatures (Kelvin)      0.07416     0.03020     0.02218
 Rotational constants (GHZ):           1.54515     0.62937     0.46218
    6 imaginary frequencies ignored.
 Zero-point vibrational energy     386161.7 (Joules/Mol)
                                   92.29487 (Kcal/Mol)
 Warning -- explicit consideration of  18 degrees of freedom as
           vibrations may cause significant error
 Vibrational temperatures:     22.64    77.51    97.35   141.10   166.01
          (Kelvin)            192.31   225.23   328.03   387.89   391.99
                              448.26   526.40   532.37   564.30   668.62
                              708.19   830.94   892.95   916.16   965.47
                              981.98  1046.59  1382.32  1522.93  1730.70
                             1916.18  2097.47  2193.43  2457.30  2468.31
                             2488.31  2499.17  2562.65  2581.93  3189.39
                             4291.90  5198.90  5303.03  5313.75  5338.60
                             5367.07  5453.47  5458.55  5467.81  5493.71

 Zero-point correction=                           0.147081 (Hartree/Particle)
 Thermal correction to Energy=                    0.159447
 Thermal correction to Enthalpy=                  0.160391
 Thermal correction to Gibbs Free Energy=         0.105390
 Sum of electronic and zero-point Energies=           -254.223954
 Sum of electronic and thermal Energies=              -254.211588
 Sum of electronic and thermal Enthalpies=            -254.210644
 Sum of electronic and thermal Free Energies=         -254.265645

                     E (Thermal)             CV                S
                      KCal/Mol        Cal/Mol-Kelvin    Cal/Mol-Kelvin
 Total                  100.054             40.632            115.759
 Electronic               0.000              0.000              0.000
 Translational            0.889              2.981             43.091
 Rotational               0.889              2.981             30.948
 Vibrational             98.277             34.671             41.720
 Vibration     1          0.593              1.986              7.111
 Vibration     2          0.596              1.976              4.670
 Vibration     3          0.598              1.970              4.220
 Vibration     4          0.604              1.951              3.492
 Vibration     5          0.608              1.937              3.176
 Vibration     6          0.613              1.920              2.893
 Vibration     7          0.620              1.895              2.591
 Vibration     8          0.651              1.798              1.895
 Vibration     9          0.674              1.729              1.599
 Vibration    10          0.675              1.724              1.581
 Vibration    11          0.700              1.652              1.354
 Vibration    12          0.739              1.542              1.097
 Vibration    13          0.742              1.534              1.080
 Vibration    14          0.760              1.487              0.992
 Vibration    15          0.822              1.328              0.753
 Vibration    16          0.848              1.267              0.678
 Vibration    17          0.934              1.080              0.490
 Vibration    18          0.981              0.988              0.415

 Normal termination of Gaussian 16 at Wed May 11 21:58:26 2022.
