 Gaussian 16, Revision A.03,
 Gaussian 16:  ES64L-G16RevA.03 25-Dec-2016

 ------------------------
 #p MP2(full) SDDAll freq
 ------------------------

 file 'w6s17.log' Now we use Def2-QZVPPD, but it was opt at: ---'ZORA-S
 R+SO PBE QZ4P'---
 ----------------------------------------------------------------------
 Symbolic Z-matrix:
 Charge =  2 Multiplicity = 1

                         Standard orientation:
 ---------------------------------------------------------------------
 Center     Atomic      Atomic             Coordinates (Angstroms)
 Number     Number       Type             X           Y           Z
 ---------------------------------------------------------------------
      1         80           0       -0.211099    0.032705    0.055620
      2          8           0       -1.878802    1.606312   -0.633944
      3          1           0       -2.583921    1.821118    0.004263
      4          1           0       -1.637175    2.446553   -1.065304
      5          8           0        1.467603    1.590431   -0.007643
      6          1           0        1.455628    2.323065    0.635510
      7          1           0        2.377757    1.172902    0.024983
      8          8           0       -1.388992   -1.347865   -1.470570
      9          1           0       -1.994886   -0.895725   -2.087050
     10          1           0       -0.896985   -2.000535   -2.002012
     11          8           0       -1.898018   -0.571699    1.606410
     12          1           0       -1.750452   -0.592002    2.569490
     13          1           0       -2.403439   -1.378295    1.392276
     14          8           0        3.700853    0.052693   -0.054807
     15          1           0        4.369430    0.078302    0.654785
     16          1           0        4.215800    0.066955   -0.883597
     17          8           0        1.481659   -1.595214    0.013213
     18          1           0        2.391777   -1.196571    0.044408
     19          1           0        1.469949   -2.339455    0.641389
 ---------------------------------------------------------------------

 SCF Done:  E(RHF) =  -253.460503386     A.U. after   13 cycles
 E2 =    -0.9124086602D+00 EUMP2 =    -0.25437291204607D+03
 E2 =    -0.9124086602D+00 EUMP2 =    -0.25437291204607D+03

 The electronic state is 1-A.
 Alpha  occ. eigenvalues --   -5.39837  -3.39693  -3.39524  -3.39480  -1.69175
 Alpha  occ. eigenvalues --   -1.68976  -1.67807  -1.67687  -1.67252  -1.67070
 Alpha  occ. eigenvalues --   -1.05800  -1.04311  -1.03213  -1.02932  -1.02604
 Alpha  occ. eigenvalues --   -1.02497  -1.01975  -1.00321  -0.99061  -0.97465
 Alpha  occ. eigenvalues --   -0.96420  -0.94171  -0.92031  -0.90153  -0.88308
 Alpha  occ. eigenvalues --   -0.87520  -0.86435  -0.84491  -0.83042  -0.82728
 Alpha  occ. eigenvalues --   -0.82645  -0.81714  -0.78874
 Alpha virt. eigenvalues --   -0.25655  -0.17290  -0.16422  -0.16141  -0.15887
 Alpha virt. eigenvalues --   -0.10832  -0.10141  -0.09280  -0.07779  -0.06527
 Alpha virt. eigenvalues --   -0.05943  -0.05090  -0.04519  -0.03471  -0.02615

 Mulliken charges:
               1
     1  Hg   1.369553
     2  O   -0.931880
     3  H    0.519533
     4  H    0.518905
     5  O   -0.962617
     6  H    0.520283
     7  H    0.572433
     8  O   -0.932531
     9  H    0.522826
    10  H    0.520260
    11  O   -0.935555
    12  H    0.522856
    13  H    0.527034
    14  O   -0.972187
    15  H    0.510573
    16  H    0.513886
    17  O   -0.959684
    18  H    0.560348
    19  H    0.515962
 Sum of Mulliken charges =   2.00000

 Dipole moment (field-independent basis, Debye):
    X=              3.8519    Y=              0.1569    Z=              2.4388  Tot=              4.5617
 Quadrupole moment (field-independent basis, Debye-Ang):
   XX=              7.4345   YY=            -28.7784   ZZ=            -32.1495
   XY=             -0.9162   XZ=              2.0667   YZ=             -0.6178

  Exact polarizability:  62.387   0.095  53.734  -0.913  -0.033  48.934
 Approx polarizability:  36.374  -0.067  34.006  -0.684   0.041  33.909

 ******    8 imaginary frequencies (negative Signs) ******

                      1                      2                      3
                      A                      A                      A
 Frequencies --   -327.8664              -302.9462              -275.2793
 Red. masses --      1.0248                 1.0372                 1.0261
 Frc consts  --      0.0649                 0.0561                 0.0458
 IR Inten    --     37.7807                27.0912                15.7001

                      4                      5                      6
                      A                      A                      A
 Frequencies --   -185.9450               -92.5156               -80.7109
 Red. masses --      1.1159                 2.6904                 3.0365
 Frc consts  --      0.0227                 0.0136                 0.0117
 IR Inten    --      6.6853                10.8549                 3.6055

                      7                      8                      9
                      A                      A                      A
 Frequencies --    -65.8586               -47.9623                25.8188
 Red. masses --      1.8937                 3.0245                 3.0939
 Frc consts  --      0.0048                 0.0041                 0.0012
 IR Inten    --     27.2606                15.5502                20.2338

                     10                     11                     12
                      A                      A                      A
 Frequencies --     52.6087                72.1353                91.9154
 Red. masses --      2.7214                 5.5545                 2.3197
 Frc consts  --      0.0044                 0.0170                 0.0115
 IR Inten    --     20.1561                 0.6939                20.2071

                     13                     14                     15
                      A                      A                      A
 Frequencies --    111.3755               151.6557               221.7296
 Red. masses --      6.6451                 5.6107                 5.6491
 Frc consts  --      0.0486                 0.0760                 0.1636
 IR Inten    --      1.7868                 0.2425                 2.0744

                     16                     17                     18
                      A                      A                      A
 Frequencies --    258.3941               291.7073               303.9910
 Red. masses --      6.6291                 4.9494                 6.2499
 Frc consts  --      0.2608                 0.2481                 0.3403
 IR Inten    --      8.3557                30.5960                34.1861

                     19                     20                     21
                      A                      A                      A
 Frequencies --    319.4895               330.1682               359.5503
 Red. masses --      4.6519                 1.3155                 5.6520
 Frc consts  --      0.2798                 0.0845                 0.4305
 IR Inten    --     55.4616                75.2448                 8.9146

                     22                     23                     24
                      A                      A                      A
 Frequencies --    420.6317               461.1994               476.4126
 Red. masses --      1.3872                 1.2145                 1.2138
 Frc consts  --      0.1446                 0.1522                 0.1623
 IR Inten    --      1.7937                62.6174                56.6157

                     25                     26                     27
                      A                      A                      A
 Frequencies --    489.0443               592.5752               617.3152
 Red. masses --      1.2112                 1.1219                 1.1448
 Frc consts  --      0.1707                 0.2321                 0.2570
 IR Inten    --     22.0036               166.4912               461.2312

                     28                     29                     30
                      A                      A                      A
 Frequencies --    634.3202               641.5579               700.1140
 Red. masses --      1.1407                 1.1270                 1.1307
 Frc consts  --      0.2704                 0.2733                 0.3265
 IR Inten    --    500.1468               148.0689               259.4141

                     31                     32                     33
                      A                      A                      A
 Frequencies --    742.1264               886.1409              1003.2039
 Red. masses --      1.1051                 1.0883                 1.0684
 Frc consts  --      0.3586                 0.5035                 0.6335
 IR Inten    --    223.8324               540.8126               294.5891

                     34                     35                     36
                      A                      A                      A
 Frequencies --   1716.4777              1717.5774              1723.1504
 Red. masses --      1.0899                 1.0888                 1.0869
 Frc consts  --      1.8920                 1.8925                 1.9015
 IR Inten    --    165.6901               176.1551                59.5489

                     37                     38                     39
                      A                      A                      A
 Frequencies --   1737.6417              1741.2060              1779.2731
 Red. masses --      1.0789                 1.0868                 1.0720
 Frc consts  --      1.9193                 1.9413                 1.9996
 IR Inten    --     53.8810               186.6869                95.3628

                     40                     41                     42
                      A                      A                      A
 Frequencies --   3234.0911              3388.0233              3685.0111
 Red. masses --      1.0604                 1.0567                 1.0401
 Frc consts  --      6.5345                 7.1465                 8.3215
 IR Inten    --    577.8197               853.7222                72.4301

                     43                     44                     45
                      A                      A                      A
 Frequencies --   3685.7356              3687.3247              3689.0433
 Red. masses --      1.0403                 1.0400                 1.0408
 Frc consts  --      8.3267                 8.3312                 8.3450
 IR Inten    --     81.3310                70.5583                31.9073

                     46                     47                     48
                      A                      A                      A
 Frequencies --   3745.3389              3761.8353              3786.0314
 Red. masses --      1.0673                 1.0688                 1.0828
 Frc consts  --      8.8208                 8.9115                 9.1448
 IR Inten    --    154.4170               138.7571               154.8588

                     49                     50                     51
                      A                      A                      A
 Frequencies --   3795.3767              3795.4948              3798.2410
 Red. masses --      1.0842                 1.0842                 1.0843
 Frc consts  --      9.2014                 9.2026                 9.2168
 IR Inten    --    157.9214               170.8458               157.2407

 - Thermochemistry -
 -------------------
 Temperature   298.150 Kelvin.  Pressure   1.00000 Atm.
 Atom     1 has atomic number 80 and mass 201.97060

 Molecular mass:   310.03399 amu.
 Principal axes and moments of inertia in atomic units:
                           1         2         3
     Eigenvalues --  1037.101542218.435232518.68241
           X            0.99999  -0.00022   0.00336
           Y            0.00023   0.99999  -0.00334
           Z           -0.00336   0.00334   0.99999
 This molecule is an asymmetric top.
 Rotational symmetry number  1.
 Warning -- assumption of classical behavior for rotation
           may cause significant error
 Rotational temperatures (Kelvin)      0.08352     0.03904     0.03439
 Rotational constants (GHZ):           1.74018     0.81352     0.71654
    8 imaginary frequencies ignored.
 Zero-point vibrational energy     387123.9 (Joules/Mol)
                                   92.52482 (Kcal/Mol)
 Warning -- explicit consideration of  19 degrees of freedom as
           vibrations may cause significant error
 Vibrational temperatures:     37.15    75.69   103.79   132.25   160.24
          (Kelvin)            218.20   319.02   371.77   419.70   437.38
                              459.67   475.04   517.31   605.20   663.56
                              685.45   703.63   852.58   888.18   912.65
                              923.06  1007.31  1067.75  1274.96  1443.39
                             2469.63  2471.21  2479.23  2500.08  2505.21
                             2559.98  4653.14  4874.61  5301.91  5302.95
                             5305.24  5307.71  5388.71  5412.44  5447.25
                             5460.70  5460.87  5464.82

 Zero-point correction=                           0.147448 (Hartree/Particle)
 Thermal correction to Energy=                    0.159796
 Thermal correction to Enthalpy=                  0.160740
 Thermal correction to Gibbs Free Energy=         0.106857
 Sum of electronic and zero-point Energies=           -254.225464
 Sum of electronic and thermal Energies=              -254.213116
 Sum of electronic and thermal Enthalpies=            -254.212172
 Sum of electronic and thermal Free Energies=         -254.266055

                     E (Thermal)             CV                S
                      KCal/Mol        Cal/Mol-Kelvin    Cal/Mol-Kelvin
 Total                  100.274             41.357            113.407
 Electronic               0.000              0.000              0.000
 Translational            0.889              2.981             43.091
 Rotational               0.889              2.981             30.139
 Vibrational             98.496             35.396             40.177
 Vibration     1          0.593              1.985              6.127
 Vibration     2          0.596              1.977              4.717
 Vibration     3          0.598              1.967              4.094
 Vibration     4          0.602              1.955              3.619
 Vibration     5          0.607              1.940              3.245
 Vibration     6          0.619              1.901              2.651
 Vibration     7          0.648              1.808              1.945
 Vibration     8          0.667              1.749              1.673
 Vibration     9          0.687              1.689              1.464
 Vibration    10          0.695              1.666              1.395
 Vibration    11          0.705              1.636              1.313
 Vibration    12          0.713              1.615              1.259
 Vibration    13          0.734              1.556              1.124
 Vibration    14          0.783              1.425              0.890
 Vibration    15          0.819              1.336              0.763
 Vibration    16          0.833              1.302              0.720
 Vibration    17          0.845              1.274              0.686
 Vibration    18          0.950              1.048              0.463
 Vibration    19          0.977              0.995              0.421

 Normal termination of Gaussian 16 at Wed May 11 22:09:38 2022.
