 Gaussian 16, Revision A.03,
 Gaussian 16:  ES64L-G16RevA.03 25-Dec-2016

 ------------------------
 #p MP2(full) SDDAll freq
 ------------------------

 file 'w6s18.log' Now we use Def2-QZVPPD, but it was opt at: ---'ZORA-S
 R+SO PBE QZ4P'---
 ----------------------------------------------------------------------
 Symbolic Z-matrix:
 Charge =  2 Multiplicity = 1

                         Standard orientation:
 ---------------------------------------------------------------------
 Center     Atomic      Atomic             Coordinates (Angstroms)
 Number     Number       Type             X           Y           Z
 ---------------------------------------------------------------------
      1         80           0       -0.000016    0.000119   -0.000002
      2          8           0       -1.663896    1.611959    0.692158
      3          1           0       -1.466911    2.421241    1.198189
      4          1           0       -2.268781    1.882975   -0.022616
      5          8           0        1.663053    1.530391   -0.858755
      6          1           0        1.465428    2.282363   -1.446531
      7          1           0        2.268790    1.874578   -0.177103
      8          8           0       -1.664055   -0.207119   -1.741709
      9          1           0       -1.466778   -0.173526   -2.695586
     10          1           0       -2.268728   -0.961793   -1.619220
     11          8           0        1.664299   -0.021177    1.753656
     12          1           0        2.269409   -0.784202    1.711097
     13          1           0        1.467406    0.112640    2.698767
     14          8           0        1.663138   -1.508912   -0.896164
     15          1           0        2.268220   -1.091367   -1.536172
     16          1           0        1.465662   -2.394457   -1.252047
     17          8           0       -1.662516   -1.405990    1.050769
     18          1           0       -1.464724   -2.248460    1.499164
     19          1           0       -2.267881   -0.922740    1.642594
 ---------------------------------------------------------------------

 SCF Done:  E(RHF) =  -253.461722015     A.U. after   12 cycles
 E2 =    -0.9089008156D+00 EUMP2 =    -0.25437062283031D+03
 E2 =    -0.9089008156D+00 EUMP2 =    -0.25437062283031D+03

 The electronic state is 1-A.
 Alpha  occ. eigenvalues --   -5.38948  -3.38805  -3.38804  -3.38605  -1.68558
 Alpha  occ. eigenvalues --   -1.68355  -1.68004  -1.68004  -1.67969  -1.67968
 Alpha  occ. eigenvalues --   -1.04193  -1.03509  -1.03417  -1.03416  -1.02919
 Alpha  occ. eigenvalues --   -1.02918  -1.00992  -1.00991  -0.96715  -0.95942
 Alpha  occ. eigenvalues --   -0.95941  -0.93545  -0.92473  -0.90850  -0.90850
 Alpha  occ. eigenvalues --   -0.86247  -0.86245  -0.83803  -0.83472  -0.83471
 Alpha  occ. eigenvalues --   -0.82711  -0.80244  -0.80243
 Alpha virt. eigenvalues --   -0.24712  -0.17086  -0.17085  -0.16291  -0.15203
 Alpha virt. eigenvalues --   -0.10943  -0.10943  -0.09037  -0.08260  -0.08259
 Alpha virt. eigenvalues --   -0.04083  -0.04081  -0.03255  -0.02916  -0.02502

 Mulliken charges:
               1
     1  Hg   1.370037
     2  O   -0.935426
     3  H    0.517587
     4  H    0.522849
     5  O   -0.935424
     6  H    0.517594
     7  H    0.522864
     8  O   -0.935415
     9  H    0.517566
    10  H    0.522859
    11  O   -0.935437
    12  H    0.522842
    13  H    0.517585
    14  O   -0.935505
    15  H    0.522845
    16  H    0.517583
    17  O   -0.935455
    18  H    0.517588
    19  H    0.522862
 Sum of Mulliken charges =   2.00000

 Dipole moment (field-independent basis, Debye):
    X=              0.0022    Y=             -0.0019    Z=              0.0015  Tot=              0.0032
 Quadrupole moment (field-independent basis, Debye-Ang):
   XX=            -25.1603   YY=            -19.9697   ZZ=            -19.9819
   XY=             -0.0080   XZ=              0.0068   YZ=              0.0002

  Exact polarizability:  55.829  -0.001  52.476   0.000  -0.003  52.473
 Approx polarizability:  32.989  -0.003  34.745   0.000  -0.002  34.744

 ******   12 imaginary frequencies (negative Signs) ******

                      1                      2                      3
                      A                      A                      A
 Frequencies --   -325.8900              -325.5840              -321.6835
 Red. masses --      1.0189                 1.0187                 1.0402
 Frc consts  --      0.0638                 0.0636                 0.0634
 IR Inten    --      0.9568                 0.1692                76.3115

                      4                      5                      6
                      A                      A                      A
 Frequencies --   -321.4999              -191.5985              -160.7748
 Red. masses --      1.0400                 1.1353                 1.1171
 Frc consts  --      0.0633                 0.0246                 0.0170
 IR Inten    --     75.8898                 0.0009                 0.0019

                      7                      8                      9
                      A                      A                      A
 Frequencies --    -67.2376               -60.8085               -60.6918
 Red. masses --      2.9219                 3.1507                 3.1563
 Frc consts  --      0.0078                 0.0069                 0.0069
 IR Inten    --      0.0004                22.9370                23.0567

                     10                     11                     12
                      A                      A                      A
 Frequencies --    -48.5195               -36.0234               -35.8163
 Red. masses --      2.9163                 3.6748                 3.6806
 Frc consts  --      0.0040                 0.0028                 0.0028
 IR Inten    --      3.6845                 1.2692                 1.3626

                     13                     14                     15
                      A                      A                      A
 Frequencies --     94.6681                94.6856               113.3628
 Red. masses --      5.5347                 5.5339                 3.5735
 Frc consts  --      0.0292                 0.0292                 0.0271
 IR Inten    --      0.2700                 0.2711                 0.0001

                     16                     17                     18
                      A                      A                      A
 Frequencies --    189.3490               189.3680               251.7349
 Red. masses --      5.6967                 5.6968                 6.8375
 Frc consts  --      0.1203                 0.1204                 0.2553
 IR Inten    --      0.7343                 0.7367                10.3564

                     19                     20                     21
                      A                      A                      A
 Frequencies --    251.8035               286.2246               303.9633
 Red. masses --      6.8371                 6.7174                 5.9762
 Frc consts  --      0.2554                 0.3242                 0.3253
 IR Inten    --     10.3615                14.2970                 0.0000

                     22                     23                     24
                      A                      A                      A
 Frequencies --    393.8134               393.9868               448.7818
 Red. masses --      1.2225                 1.2224                 1.2852
 Frc consts  --      0.1117                 0.1118                 0.1525
 IR Inten    --      5.4394                 5.4001                 0.1231

                     25                     26                     27
                      A                      A                      A
 Frequencies --    449.8758               449.9292               456.5669
 Red. masses --      1.2241                 1.2241                 1.2686
 Frc consts  --      0.1460                 0.1460                 0.1558
 IR Inten    --     37.4596                37.2981                22.2116

                     28                     29                     30
                      A                      A                      A
 Frequencies --    588.6057               588.8833               599.6262
 Red. masses --      1.1560                 1.1559                 1.1430
 Frc consts  --      0.2360                 0.2362                 0.2421
 IR Inten    --    482.2121               480.9566              1612.2075

                     31                     32                     33
                      A                      A                      A
 Frequencies --    649.8339               650.0242               659.8925
 Red. masses --      1.1386                 1.1385                 1.1258
 Frc consts  --      0.2833                 0.2834                 0.2888
 IR Inten    --    137.6299               136.0542                 0.0568

                     34                     35                     36
                      A                      A                      A
 Frequencies --   1711.9559              1711.9670              1715.5899
 Red. masses --      1.0905                 1.0905                 1.0875
 Frc consts  --      1.8830                 1.8831                 1.8858
 IR Inten    --    244.7075               245.3434                97.5504

                     37                     38                     39
                      A                      A                      A
 Frequencies --   1717.2591              1717.2669              1722.0608
 Red. masses --      1.0878                 1.0878                 1.0860
 Frc consts  --      1.8900                 1.8900                 1.8975
 IR Inten    --     96.0023                95.5658                 0.0064

                     40                     41                     42
                      A                      A                      A
 Frequencies --   3688.1478              3690.4385              3690.7151
 Red. masses --      1.0402                 1.0399                 1.0399
 Frc consts  --      8.3366                 8.3444                 8.3457
 IR Inten    --    110.8136                 6.5892                 5.6492

                     43                     44                     45
                      A                      A                      A
 Frequencies --   3692.0687              3692.3350              3692.5318
 Red. masses --      1.0402                 1.0402                 1.0400
 Frc consts  --      8.3543                 8.3555                 8.3550
 IR Inten    --     65.2921                69.0808               104.8980

                     46                     47                     48
                      A                      A                      A
 Frequencies --   3800.4917              3800.7599              3801.0029
 Red. masses --      1.0840                 1.0840                 1.0840
 Frc consts  --      9.2248                 9.2264                 9.2272
 IR Inten    --     16.0505                 3.3548                32.3950

                     49                     50                     51
                      A                      A                      A
 Frequencies --   3801.3862              3802.0038              3802.1717
 Red. masses --      1.0843                 1.0842                 1.0842
 Frc consts  --      9.2317                 9.2341                 9.2350
 IR Inten    --    225.2807               321.8416               300.7740

 - Thermochemistry -
 -------------------
 Temperature   298.150 Kelvin.  Pressure   1.00000 Atm.
 Atom     1 has atomic number 80 and mass 201.97060

 Molecular mass:   310.03399 amu.
 Principal axes and moments of inertia in atomic units:
                           1         2         3
     Eigenvalues --  1289.207331750.356981750.68164
           X            1.00000  -0.00002   0.00002
           Y            0.00002   1.00000   0.00298
           Z           -0.00002  -0.00298   1.00000
 This molecule is an asymmetric top.
 Rotational symmetry number  1.
 Warning -- assumption of classical behavior for rotation
           may cause significant error
 Rotational temperatures (Kelvin)      0.06718     0.04948     0.04947
 Rotational constants (GHZ):           1.39988     1.03107     1.03088
   12 imaginary frequencies ignored.
 Zero-point vibrational energy     378947.8 (Joules/Mol)
                                   90.57071 (Kcal/Mol)
 Warning -- explicit consideration of  18 degrees of freedom as
           vibrations may cause significant error
 Vibrational temperatures:    136.21   136.23   163.10   272.43   272.46
          (Kelvin)            362.19   362.29   411.81   437.34   566.61
                              566.86   645.70   647.27   647.35   656.90
                              846.87   847.27   862.73   934.97   935.24
                              949.44  2463.12  2463.14  2468.35  2470.75
                             2470.76  2477.66  5306.42  5309.72  5310.12
                             5312.06  5312.45  5312.73  5468.06  5468.45
                             5468.80  5469.35  5470.24  5470.48

 Zero-point correction=                           0.144334 (Hartree/Particle)
 Thermal correction to Energy=                    0.154926
 Thermal correction to Enthalpy=                  0.155871
 Thermal correction to Gibbs Free Energy=         0.107581
 Sum of electronic and zero-point Energies=           -254.226289
 Sum of electronic and thermal Energies=              -254.215697
 Sum of electronic and thermal Enthalpies=            -254.214752
 Sum of electronic and thermal Free Energies=         -254.263042

                     E (Thermal)             CV                S
                      KCal/Mol        Cal/Mol-Kelvin    Cal/Mol-Kelvin
 Total                   97.218             36.914            101.633
 Electronic               0.000              0.000              0.000
 Translational            0.889              2.981             43.091
 Rotational               0.889              2.981             29.759
 Vibrational             95.440             30.953             28.784
 Vibration     1          0.603              1.953              3.561
 Vibration     2          0.603              1.953              3.561
 Vibration     3          0.607              1.938              3.211
 Vibration     4          0.633              1.855              2.234
 Vibration     5          0.633              1.855              2.234
 Vibration     6          0.664              1.760              1.718
 Vibration     7          0.664              1.760              1.718
 Vibration     8          0.684              1.699              1.496
 Vibration     9          0.695              1.666              1.395
 Vibration    10          0.761              1.483              0.986
 Vibration    11          0.761              1.483              0.985
 Vibration    12          0.808              1.364              0.799
 Vibration    13          0.809              1.361              0.796
 Vibration    14          0.809              1.361              0.796
 Vibration    15          0.815              1.346              0.776
 Vibration    16          0.946              1.056              0.470
 Vibration    17          0.946              1.055              0.469
 Vibration    18          0.958              1.033              0.450

 Normal termination of Gaussian 16 at Wed May 11 22:11:31 2022.
