 Gaussian 16, Revision A.03,
 Gaussian 16:  ES64L-G16RevA.03 25-Dec-2016

 ------------------------
 #p MP2(full) SDDAll freq
 ------------------------

 file 'w6s1.log' Now we use Def2-QZVPPD, but it was opt at: ---'ZORA-SR
 +SO PBE QZ4P'---
 ----------------------------------------------------------------------
 Symbolic Z-matrix:
 Charge =  2 Multiplicity = 1

                         Standard orientation:
 ---------------------------------------------------------------------
 Center     Atomic      Atomic             Coordinates (Angstroms)
 Number     Number       Type             X           Y           Z
 ---------------------------------------------------------------------
      1         80           0        0.000000    0.000000    0.119457
      2          8           0        0.000000    5.919283    0.462540
      3          1           0        0.697356    6.558881    0.689064
      4          1           0       -0.812778    6.429921    0.299838
      5          8           0       -0.000000   -5.919283    0.462540
      6          1           0       -0.697356   -6.558881    0.689064
      7          1           0        0.812778   -6.429921    0.299838
      8          8           0       -0.386755   -3.977157   -1.006666
      9          1           0       -0.992408   -4.148965   -1.750038
     10          1           0       -0.265534   -4.852417   -0.367988
     11          8           0        0.386755    3.977157   -1.006666
     12          1           0        0.265534    4.852417   -0.367988
     13          1           0        0.992408    4.148965   -1.750038
     14          8           0        0.944120    1.754085    0.066155
     15          1           0        0.626740    3.077045   -0.531393
     16          1           0        1.677671    1.750664    0.706005
     17          8           0       -0.944120   -1.754085    0.066155
     18          1           0       -0.626740   -3.077045   -0.531393
     19          1           0       -1.677671   -1.750664    0.706005
 ---------------------------------------------------------------------

 SCF Done:  E(RHF) =  -253.441666835     A.U. after   14 cycles
 E2 =    -0.9322084686D+00 EUMP2 =    -0.25437387530349D+03
 E2 =    -0.9322084686D+00 EUMP2 =    -0.25437387530349D+03

 The electronic state is 1-A.
 Alpha  occ. eigenvalues --   -5.38794  -3.38254  -3.37714  -3.37709  -1.69629
 Alpha  occ. eigenvalues --   -1.69620  -1.64906  -1.64901  -1.59001  -1.57686
 Alpha  occ. eigenvalues --   -1.05413  -1.05240  -1.03905  -1.03578  -1.00879
 Alpha  occ. eigenvalues --   -0.99983  -0.99982  -0.97622  -0.96512  -0.94447
 Alpha  occ. eigenvalues --   -0.94445  -0.88712  -0.87976  -0.87021  -0.85113
 Alpha  occ. eigenvalues --   -0.83557  -0.83547  -0.79946  -0.79819  -0.76869
 Alpha  occ. eigenvalues --   -0.76303  -0.75458  -0.75200
 Alpha virt. eigenvalues --   -0.20580  -0.16161  -0.16012  -0.12754  -0.11875
 Alpha virt. eigenvalues --   -0.08519  -0.08219  -0.06843  -0.06435  -0.05131
 Alpha virt. eigenvalues --   -0.04252  -0.02979  -0.02880  -0.01962  -0.01440

 Mulliken charges:
               1
     1  Hg   1.297312
     2  O   -0.904146
     3  H    0.508773
     4  H    0.509833
     5  O   -0.904146
     6  H    0.508773
     7  H    0.509833
     8  O   -0.925978
     9  H    0.522424
    10  H    0.618910
    11  O   -0.925978
    12  H    0.618910
    13  H    0.522424
    14  O   -1.122982
    15  H    0.646291
    16  H    0.498220
    17  O   -1.122982
    18  H    0.646291
    19  H    0.498220
 Sum of Mulliken charges =   2.00000

 Dipole moment (field-independent basis, Debye):
    X=             -0.0000    Y=             -0.0000    Z=             -1.2233  Tot=              1.2233
 Quadrupole moment (field-independent basis, Debye-Ang):
   XX=            -43.0242   YY=            174.1055   ZZ=            -48.7000
   XY=             20.8915   XZ=              0.0000   YZ=             -0.0000

  Exact polarizability:  49.426   6.595  87.560   0.000   0.000  46.605
 Approx polarizability:  35.435   1.925  46.153   0.000   0.000  32.797

 ******    7 imaginary frequencies (negative Signs) ******

                      1                      2                      3
                      A                      B                      A
 Frequencies --   -346.9412              -341.1206              -157.4772
 Red. masses --      1.0259                 1.0280                 1.4950
 Frc consts  --      0.0728                 0.0705                 0.0218
 IR Inten    --      6.7345                89.6784                44.3314

                      4                      5                      6
                      B                      A                      B
 Frequencies --   -154.5954               -96.1863               -41.8355
 Red. masses --      1.4602                 2.8618                 4.4947
 Frc consts  --      0.0206                 0.0156                 0.0046
 IR Inten    --     30.8741                 0.0171                31.0414

                      7                      8                      9
                      A                      B                      A
 Frequencies --    -10.9361                42.1209                52.8413
 Red. masses --      5.6228                 5.7628                 5.5746
 Frc consts  --      0.0004                 0.0060                 0.0092
 IR Inten    --     22.0880                 3.7883                 0.0001

                     10                     11                     12
                      B                      A                      B
 Frequencies --    102.0645               105.8128               225.2316
 Red. masses --      5.4160                 5.0893                 2.9018
 Frc consts  --      0.0332                 0.0336                 0.0867
 IR Inten    --     43.5937                 1.2769               115.2415

                     13                     14                     15
                      A                      B                      A
 Frequencies --    241.2803               309.1346               312.4760
 Red. masses --      2.7759                 1.1325                 1.1535
 Frc consts  --      0.0952                 0.0638                 0.0664
 IR Inten    --     44.6216                95.5357                53.1365

                     16                     17                     18
                      B                      A                      B
 Frequencies --    320.6255               322.7974               424.3727
 Red. masses --      3.4580                 3.3950                 4.0415
 Frc consts  --      0.2094                 0.2084                 0.4288
 IR Inten    --    227.6719                53.7241               446.4446

                     19                     20                     21
                      A                      B                      A
 Frequencies --    434.0832               487.7413               488.5775
 Red. masses --      4.1328                 1.3074                 1.3539
 Frc consts  --      0.4588                 0.1832                 0.1904
 IR Inten    --    133.6995                 8.1566               104.9181

                     22                     23                     24
                      B                      A                      A
 Frequencies --    586.5906               586.8776               626.9656
 Red. masses --      1.0701                 1.0708                 7.7864
 Frc consts  --      0.2169                 0.2173                 1.8033
 IR Inten    --     54.7427               341.1402                 3.6280

                     25                     26                     27
                      B                      B                      A
 Frequencies --    668.9050               680.6089               681.6352
 Red. masses --      7.2372                 1.2124                 1.1770
 Frc consts  --      1.9079                 0.3309                 0.3222
 IR Inten    --    290.1734                66.3981               576.9041

                     28                     29                     30
                      A                      B                      B
 Frequencies --    997.7434               997.8452              1246.7476
 Red. masses --      1.0885                 1.0967                 1.0526
 Frc consts  --      0.6384                 0.6434                 0.9640
 IR Inten    --     24.9574                15.3286               219.1259

                     31                     32                     33
                      A                      B                      A
 Frequencies --   1250.3690              1481.3546              1481.7377
 Red. masses --      1.0487                 1.0757                 1.0750
 Frc consts  --      0.9660                 1.3907                 1.3906
 IR Inten    --      3.7916               714.3925               186.9648

                     34                     35                     36
                      B                      A                      B
 Frequencies --   1682.2291              1686.2005              1770.8899
 Red. masses --      1.0780                 1.0768                 1.0434
 Frc consts  --      1.7974                 1.8039                 1.9280
 IR Inten    --    553.0792               181.4508               525.5314

                     37                     38                     39
                      A                      B                      A
 Frequencies --   1771.8290              1800.3953              1800.7923
 Red. masses --      1.0429                 1.0468                 1.0475
 Frc consts  --      1.9290                 1.9991                 2.0013
 IR Inten    --      4.1206                50.8676                51.6120

                     40                     41                     42
                      B                      A                      B
 Frequencies --   1922.6711              1942.6859              2486.4882
 Red. masses --      1.1575                 1.1474                 1.0692
 Frc consts  --      2.5211                 2.5515                 3.8946
 IR Inten    --   6449.6865               878.0986              3817.1795

                     43                     44                     45
                      A                      B                      A
 Frequencies --   2530.1143              3711.9508              3712.0204
 Red. masses --      1.0691                 1.0406                 1.0406
 Frc consts  --      4.0324                 8.4474                 8.4478
 IR Inten    --   1080.5420               118.5253                 4.5203

                     46                     47                     48
                      B                      A                      B
 Frequencies --   3742.8048              3744.3401              3750.5170
 Red. masses --      1.0661                 1.0663                 1.0641
 Frc consts  --      8.7989                 8.8085                 8.8186
 IR Inten    --    192.4177                36.0194                79.7644

                     49                     50                     51
                      A                      A                      B
 Frequencies --   3750.9050              3819.0937              3819.1367
 Red. masses --      1.0643                 1.0845                 1.0842
 Frc consts  --      8.8220                 9.3196                 9.3175
 IR Inten    --    242.2236                21.9189               337.3167

 - Thermochemistry -
 -------------------
 Temperature   298.150 Kelvin.  Pressure   1.00000 Atm.
 Atom     1 has atomic number 80 and mass 201.97060

 Molecular mass:   310.03399 amu.
 Principal axes and moments of inertia in atomic units:
                           1         2         3
     Eigenvalues --   314.161167309.829807361.97426
           X            0.06172   0.00000   0.99809
           Y            0.99809   0.00000  -0.06172
           Z           -0.00000   1.00000  -0.00000
 This molecule is an asymmetric top.
 Rotational symmetry number  2.
 Rotational temperatures (Kelvin)      0.27570     0.01185     0.01177
 Rotational constants (GHZ):           5.74464     0.24689     0.24514
    7 imaginary frequencies ignored.
 Zero-point vibrational energy     386403.4 (Joules/Mol)
                                   92.35263 (Kcal/Mol)
 Warning -- explicit consideration of  16 degrees of freedom as
           vibrations may cause significant error
 Vibrational temperatures:     60.60    76.03   146.85   152.24   324.06
          (Kelvin)            347.15   444.78   449.58   461.31   464.43
                              610.58   624.55   701.75   702.95   843.97
                              844.39   902.06   962.41   979.24   980.72
                             1435.53  1435.68  1793.79  1799.00  2131.34
                             2131.89  2420.35  2426.07  2547.92  2549.27
                             2590.37  2590.94  2766.29  2795.09  3577.50
                             3640.27  5340.67  5340.77  5385.06  5387.27
                             5396.16  5396.72  5494.82  5494.89

 Zero-point correction=                           0.147173 (Hartree/Particle)
 Thermal correction to Energy=                    0.157765
 Thermal correction to Enthalpy=                  0.158709
 Thermal correction to Gibbs Free Energy=         0.109136
 Sum of electronic and zero-point Energies=           -254.226702
 Sum of electronic and thermal Energies=              -254.216111
 Sum of electronic and thermal Enthalpies=            -254.215167
 Sum of electronic and thermal Free Energies=         -254.264739

                     E (Thermal)             CV                S
                      KCal/Mol        Cal/Mol-Kelvin    Cal/Mol-Kelvin
 Total                   98.999             36.531            104.334
 Electronic               0.000              0.000              0.000
 Translational            0.889              2.981             43.091
 Rotational               0.889              2.981             29.826
 Vibrational             97.221             30.570             31.418
 Vibration     1          0.595              1.980              5.157
 Vibration     2          0.596              1.976              4.708
 Vibration     3          0.604              1.948              3.415
 Vibration     4          0.605              1.945              3.344
 Vibration     5          0.650              1.803              1.917
 Vibration     6          0.658              1.777              1.793
 Vibration     7          0.698              1.656              1.367
 Vibration     8          0.701              1.650              1.349
 Vibration     9          0.706              1.634              1.307
 Vibration    10          0.708              1.630              1.296
 Vibration    11          0.786              1.417              0.877
 Vibration    12          0.795              1.396              0.845
 Vibration    13          0.844              1.277              0.689
 Vibration    14          0.844              1.275              0.687
 Vibration    15          0.944              1.060              0.473
 Vibration    16          0.944              1.060              0.473

 Normal termination of Gaussian 16 at Wed May 11 21:38:35 2022.
