 Gaussian 16, Revision A.03,
 Gaussian 16:  ES64L-G16RevA.03 25-Dec-2016

 ------------------------
 #p MP2(full) SDDAll freq
 ------------------------

 file 'w6s12.log' Now we use Def2-QZVPPD, but it was opt at: ---'ZORA-S
 R+SO PBE QZ4P'---
 ----------------------------------------------------------------------
 Symbolic Z-matrix:
 Charge =  2 Multiplicity = 1

                         Standard orientation:
 ---------------------------------------------------------------------
 Center     Atomic      Atomic             Coordinates (Angstroms)
 Number     Number       Type             X           Y           Z
 ---------------------------------------------------------------------
      1         80           0        0.054032   -0.100145   -0.065226
      2          8           0       -2.804349    2.667759    0.183565
      3          1           0       -3.269352    2.983578    0.979108
      4          1           0       -3.309300    3.000036   -0.579002
      5          8           0        0.034911   -1.810405    1.770115
      6          1           0       -0.545568   -1.730893    2.546846
      7          1           0        0.830914   -2.268446    2.090560
      8          8           0        3.553282    1.715858    0.033471
      9          1           0        3.890376    2.279075   -0.686789
     10          1           0        4.300055    1.558382    0.639309
     11          8           0       -1.388581   -1.926154   -1.273788
     12          1           0       -1.483875   -2.084266   -2.230342
     13          1           0       -1.418600   -2.811299   -0.867638
     14          8           0       -1.949514    0.341612    0.297383
     15          1           0       -2.348231    1.339311    0.199674
     16          1           0       -2.457647   -0.297249   -0.246210
     17          8           0        2.104562   -0.229431   -0.401690
     18          1           0        2.751080    0.643308   -0.261533
     19          1           0        2.335097   -0.673824   -1.238320
 ---------------------------------------------------------------------

 SCF Done:  E(RHF) =  -253.446989675     A.U. after   14 cycles
 E2 =    -0.9203019205D+00 EUMP2 =    -0.25436729159511D+03
 E2 =    -0.9203019205D+00 EUMP2 =    -0.25436729159511D+03

 The electronic state is 1-A.
 Alpha  occ. eigenvalues --   -5.40663  -3.40396  -3.40029  -3.39870  -1.69427
 Alpha  occ. eigenvalues --   -1.67824  -1.66300  -1.66116  -1.65037  -1.64699
 Alpha  occ. eigenvalues --   -1.06987  -1.06285  -1.03688  -1.02451  -1.01066
 Alpha  occ. eigenvalues --   -1.00973  -1.00442  -0.98721  -0.98230  -0.97652
 Alpha  occ. eigenvalues --   -0.96730  -0.92014  -0.91444  -0.89707  -0.86868
 Alpha  occ. eigenvalues --   -0.85756  -0.84261  -0.82964  -0.81729  -0.81028
 Alpha  occ. eigenvalues --   -0.80654  -0.80290  -0.78035
 Alpha virt. eigenvalues --   -0.24429  -0.17293  -0.16352  -0.15114  -0.14605
 Alpha virt. eigenvalues --   -0.09917  -0.09571  -0.09014  -0.06967  -0.06659
 Alpha virt. eigenvalues --   -0.05530  -0.03826  -0.03624  -0.03477  -0.02410

 Mulliken charges:
               1
     1  Hg   1.349534
     2  O   -0.913911
     3  H    0.513655
     4  H    0.508296
     5  O   -0.948414
     6  H    0.507331
     7  H    0.508526
     8  O   -0.912387
     9  H    0.516231
    10  H    0.519114
    11  O   -0.957082
    12  H    0.509179
    13  H    0.510973
    14  O   -1.012227
    15  H    0.624342
    16  H    0.544165
    17  O   -1.020933
    18  H    0.627266
    19  H    0.526343
 Sum of Mulliken charges =   2.00000

 Dipole moment (field-independent basis, Debye):
    X=              1.0842    Y=              1.7744    Z=             -1.9718  Tot=              2.8656
 Quadrupole moment (field-independent basis, Debye-Ang):
   XX=             20.3486   YY=            -16.2300   ZZ=            -31.6372
   XY=             -1.4413   XZ=             -0.1675   YZ=             -0.9620

  Exact polarizability:  64.206  -0.197  56.247   0.084   0.021  49.628
 Approx polarizability:  36.202  -0.416  35.293   0.367  -0.012  35.288

 ******    9 imaginary frequencies (negative Signs) ******

                      1                      2                      3
                      A                      A                      A
 Frequencies --   -400.2119              -355.8152              -329.1271
 Red. masses --      1.0162                 1.0280                 1.0288
 Frc consts  --      0.0959                 0.0767                 0.0657
 IR Inten    --      9.1552                32.5476                43.9997

                      4                      5                      6
                      A                      A                      A
 Frequencies --   -313.4411               -98.6608               -86.8363
 Red. masses --      1.0297                 2.6904                 2.5645
 Frc consts  --      0.0596                 0.0154                 0.0114
 IR Inten    --      4.4761                 3.8210                35.8354

                      7                      8                      9
                      A                      A                      A
 Frequencies --    -75.9285               -39.0406               -16.5883
 Red. masses --      2.7361                 3.8022                 5.1179
 Frc consts  --      0.0093                 0.0034                 0.0008
 IR Inten    --     11.3683                 6.1615                 5.4247

                     10                     11                     12
                      A                      A                      A
 Frequencies --     45.1823                67.3118                92.6927
 Red. masses --      5.6191                 5.4743                 5.2787
 Frc consts  --      0.0068                 0.0146                 0.0267
 IR Inten    --      2.1419                11.9088                 3.7840

                     13                     14                     15
                      A                      A                      A
 Frequencies --    100.6293               201.1899               210.7495
 Red. masses --      6.2219                 6.0265                 5.3157
 Frc consts  --      0.0371                 0.1437                 0.1391
 IR Inten    --      0.6006                 3.4080                 5.5978

                     16                     17                     18
                      A                      A                      A
 Frequencies --    275.6297               288.3260               340.5698
 Red. masses --      1.2301                 1.2286                 1.9247
 Frc consts  --      0.0551                 0.0602                 0.1315
 IR Inten    --     30.6377                45.1335                38.7687

                     19                     20                     21
                      A                      A                      A
 Frequencies --    348.8845               361.6232               369.3306
 Red. masses --      2.0896                 3.1459                 1.6218
 Frc consts  --      0.1499                 0.2424                 0.1303
 IR Inten    --    172.9764                63.8092                70.2558

                     22                     23                     24
                      A                      A                      A
 Frequencies --    480.6613               553.5412               564.0423
 Red. masses --      1.4262                 5.1717                 1.1776
 Frc consts  --      0.1941                 0.9336                 0.2207
 IR Inten    --     53.3134               183.3139               365.2340

                     25                     26                     27
                      A                      A                      A
 Frequencies --    597.0177               623.7324               637.0572
 Red. masses --      3.0519                 1.1467                 1.3053
 Frc consts  --      0.6409                 0.2629                 0.3121
 IR Inten    --     35.4147               154.3233               287.1813

                     28                     29                     30
                      A                      A                      A
 Frequencies --    661.7228               680.7117               939.1940
 Red. masses --      1.2162                 1.1595                 1.0691
 Frc consts  --      0.3138                 0.3165                 0.5556
 IR Inten    --    405.6648               542.8870                12.3706

                     31                     32                     33
                      A                      A                      A
 Frequencies --    968.1528              1345.7704              1390.6318
 Red. masses --      1.0823                 1.0555                 1.0550
 Frc consts  --      0.5977                 1.1263                 1.2021
 IR Inten    --    136.4073               183.8017               181.3809

                     34                     35                     36
                      A                      A                      A
 Frequencies --   1681.5154              1718.7255              1722.6087
 Red. masses --      1.1039                 1.0868                 1.0884
 Frc consts  --      1.8390                 1.8916                 1.9029
 IR Inten    --    599.5987                98.0886               131.4643

                     37                     38                     39
                      A                      A                      A
 Frequencies --   1725.3997              1762.6335              1769.9617
 Red. masses --      1.0871                 1.0804                 1.0698
 Frc consts  --      1.9067                 1.9776                 1.9746
 IR Inten    --    130.4931               613.8717                56.3880

                     40                     41                     42
                      A                      A                      A
 Frequencies --   1845.9980              2036.9094              3643.2508
 Red. masses --      1.0710                 1.0835                 1.0646
 Frc consts  --      2.1504                 2.6486                 8.3253
 IR Inten    --   2633.0105              3668.6684               203.1337

                     43                     44                     45
                      A                      A                      A
 Frequencies --   3698.2757              3701.6314              3708.8901
 Red. masses --      1.0405                 1.0404                 1.0407
 Frc consts  --      8.3848                 8.3995                 8.4346
 IR Inten    --     79.3695                27.6002                66.8006

                     46                     47                     48
                      A                      A                      A
 Frequencies --   3718.9784              3731.7349              3803.0785
 Red. masses --      1.0403                 1.0650                 1.0843
 Frc consts  --      8.4773                 8.7384                 9.2397
 IR Inten    --     45.4397               139.8062               171.0307

                     49                     50                     51
                      A                      A                      A
 Frequencies --   3806.1782              3814.7487              3826.1248
 Red. masses --      1.0833                 1.0839                 1.0837
 Frc consts  --      9.2466                 9.2930                 9.3467
 IR Inten    --    140.6444               172.9777               133.3677

 - Thermochemistry -
 -------------------
 Temperature   298.150 Kelvin.  Pressure   1.00000 Atm.
 Atom     1 has atomic number 80 and mass 201.97060

 Molecular mass:   310.03399 amu.
 Principal axes and moments of inertia in atomic units:
                           1         2         3
     Eigenvalues --  1529.921862423.226343224.15902
           X            1.00000  -0.00009   0.00068
           Y            0.00009   1.00000  -0.00290
           Z           -0.00068   0.00290   1.00000
 This molecule is an asymmetric top.
 Rotational symmetry number  1.
 Warning -- assumption of classical behavior for rotation
           may cause significant error
 Rotational temperatures (Kelvin)      0.05661     0.03574     0.02686
 Rotational constants (GHZ):           1.17963     0.74477     0.55976
    9 imaginary frequencies ignored.
 Zero-point vibrational energy     381973.6 (Joules/Mol)
                                   91.29388 (Kcal/Mol)
 Warning -- explicit consideration of  16 degrees of freedom as
           vibrations may cause significant error
 Vibrational temperatures:     65.01    96.85   133.36   144.78   289.47
          (Kelvin)            303.22   396.57   414.84   490.00   501.97
                              520.30   531.38   691.56   796.42   811.53
                              858.98   897.41   916.58   952.07   979.39
                             1351.29  1392.96  1936.26  2000.81  2419.33
                             2472.86  2478.45  2482.47  2536.04  2546.58
                             2655.98  2930.66  5241.83  5320.99  5325.82
                             5336.27  5350.78  5369.13  5471.78  5476.24
                             5488.57  5504.94

 Zero-point correction=                           0.145486 (Hartree/Particle)
 Thermal correction to Energy=                    0.156282
 Thermal correction to Enthalpy=                  0.157226
 Thermal correction to Gibbs Free Energy=         0.106851
 Sum of electronic and zero-point Energies=           -254.221806
 Sum of electronic and thermal Energies=              -254.211009
 Sum of electronic and thermal Enthalpies=            -254.210065
 Sum of electronic and thermal Free Energies=         -254.260440

                     E (Thermal)             CV                S
                      KCal/Mol        Cal/Mol-Kelvin    Cal/Mol-Kelvin
 Total                   98.069             36.756            106.023
 Electronic               0.000              0.000              0.000
 Translational            0.889              2.981             43.091
 Rotational               0.889              2.981             30.859
 Vibrational             96.291             30.794             32.074
 Vibration     1          0.595              1.979              5.018
 Vibration     2          0.598              1.970              4.230
 Vibration     3          0.602              1.954              3.602
 Vibration     4          0.604              1.949              3.442
 Vibration     5          0.638              1.838              2.122
 Vibration     6          0.643              1.824              2.037
 Vibration     7          0.677              1.718              1.561
 Vibration     8          0.685              1.695              1.484
 Vibration     9          0.720              1.594              1.209
 Vibration    10          0.726              1.578              1.171
 Vibration    11          0.736              1.551              1.115
 Vibration    12          0.742              1.535              1.083
 Vibration    13          0.837              1.293              0.708
 Vibration    14          0.909              1.132              0.537
 Vibration    15          0.920              1.109              0.516
 Vibration    16          0.955              1.038              0.455

 Normal termination of Gaussian 16 at Wed May 11 22:00:24 2022.
