 Gaussian 16, Revision A.03,
 Gaussian 16:  ES64L-G16RevA.03 25-Dec-2016

 ------------------------
 #p MP2(full) SDDAll freq
 ------------------------

 file 'w6s15.log' Now we use Def2-QZVPPD, but it was opt at: ---'ZORA-S
 R+SO PBE QZ4P'---
 ----------------------------------------------------------------------
 Symbolic Z-matrix:
 Charge =  2 Multiplicity = 1

                         Standard orientation:
 ---------------------------------------------------------------------
 Center     Atomic      Atomic             Coordinates (Angstroms)
 Number     Number       Type             X           Y           Z
 ---------------------------------------------------------------------
      1         80           0        0.111470    0.026979   -0.193702
      2          8           0        3.960992    0.632132    0.422330
      3          1           0        4.659870   -0.047272    0.443145
      4          1           0        4.406573    1.493640    0.321226
      5          8           0       -2.759236    2.391376    0.663696
      6          1           0       -3.348733    2.810123    0.012828
      7          1           0       -3.093518    2.652045    1.539848
      8          8           0        1.056392   -1.670511    1.448043
      9          1           0        1.258367   -2.592135    1.211039
     10          1           0        0.826994   -1.693737    2.393414
     11          8           0        2.015703    0.081988   -0.964854
     12          1           0        2.073723    0.490426   -1.848568
     13          1           0        2.897984    0.365803   -0.348175
     14          8           0       -1.808830    0.073106    0.453041
     15          1           0       -2.252403    1.027944    0.491943
     16          1           0       -2.447647   -0.654111    0.036937
     17          8           0       -3.255134   -1.761625   -0.481043
     18          1           0       -3.853166   -1.652420   -1.240857
     19          1           0       -3.724779   -2.330335    0.153703
 ---------------------------------------------------------------------

 SCF Done:  E(RHF) =  -253.443111051     A.U. after   14 cycles
 E2 =    -0.9236296975D+00 EUMP2 =    -0.25436674074834D+03
 E2 =    -0.9236296975D+00 EUMP2 =    -0.25436674074834D+03

 The electronic state is 1-A.
 Alpha  occ. eigenvalues --   -5.41418  -3.41049  -3.40697  -3.40409  -1.69267
 Alpha  occ. eigenvalues --   -1.67097  -1.65858  -1.65727  -1.64462  -1.63049
 Alpha  occ. eigenvalues --   -1.06823  -1.05753  -1.05423  -1.02464  -1.00440
 Alpha  occ. eigenvalues --   -1.00366  -0.99728  -0.98565  -0.98072  -0.97887
 Alpha  occ. eigenvalues --   -0.97039  -0.94341  -0.91112  -0.87767  -0.86050
 Alpha  occ. eigenvalues --   -0.84427  -0.83260  -0.82308  -0.81081  -0.80319
 Alpha  occ. eigenvalues --   -0.79957  -0.79878  -0.78090
 Alpha virt. eigenvalues --   -0.23934  -0.18338  -0.16332  -0.14772  -0.14526
 Alpha virt. eigenvalues --   -0.09994  -0.09361  -0.08420  -0.07073  -0.06023
 Alpha virt. eigenvalues --   -0.05281  -0.05025  -0.03692  -0.02577  -0.02403

 Mulliken charges:
               1
     1  Hg   1.353437
     2  O   -0.899851
     3  H    0.520852
     4  H    0.515330
     5  O   -0.931120
     6  H    0.505937
     7  H    0.510386
     8  O   -0.944322
     9  H    0.503316
    10  H    0.505656
    11  O   -1.044693
    12  H    0.527663
    13  H    0.634887
    14  O   -1.087954
    15  H    0.621410
    16  H    0.623387
    17  O   -0.931054
    18  H    0.505725
    19  H    0.511009
 Sum of Mulliken charges =   2.00000

 Dipole moment (field-independent basis, Debye):
    X=             -1.2393    Y=              1.1557    Z=             -0.0638  Tot=              1.6957
 Quadrupole moment (field-independent basis, Debye-Ang):
   XX=             47.7718   YY=            -23.0055   ZZ=            -40.3799
   XY=              2.3249   XZ=             -0.7553   YZ=             -4.4495

  Exact polarizability:  70.241  -0.239  53.253  -0.082  -1.073  49.210
 Approx polarizability:  37.873  -0.298  35.470   0.752  -0.349  35.184

 ******    7 imaginary frequencies (negative Signs) ******

                      1                      2                      3
                      A                      A                      A
 Frequencies --   -427.1438              -366.7480              -362.2082
 Red. masses --      1.0154                 1.0136                 1.0284
 Frc consts  --      0.1092                 0.0803                 0.0795
 IR Inten    --     10.0561                 4.6646                46.6207

                      4                      5                      6
                      A                      A                      A
 Frequencies --   -316.5426               -95.7584               -71.0707
 Red. masses --      1.0345                 2.7995                 2.7292
 Frc consts  --      0.0611                 0.0151                 0.0081
 IR Inten    --     49.0621                 3.3294                45.7716

                      7                      8                      9
                      A                      A                      A
 Frequencies --    -67.8916                26.1007                48.8071
 Red. masses --      2.9577                 5.2467                 5.2097
 Frc consts  --      0.0080                 0.0021                 0.0073
 IR Inten    --     15.7931                 9.7743                 5.7524

                     10                     11                     12
                      A                      A                      A
 Frequencies --     58.8379                64.6686               107.6820
 Red. masses --      5.3043                 4.9570                 6.0971
 Frc consts  --      0.0108                 0.0122                 0.0417
 IR Inten    --      1.1982                 2.1439                 5.1663

                     13                     14                     15
                      A                      A                      A
 Frequencies --    129.9292               190.5328               278.0433
 Red. masses --      5.9510                 6.2971                 1.1273
 Frc consts  --      0.0592                 0.1347                 0.0513
 IR Inten    --      9.6040                 2.8949                 1.2063

                     16                     17                     18
                      A                      A                      A
 Frequencies --    282.9314               311.1270               341.6556
 Red. masses --      4.1311                 1.1623                 1.2604
 Frc consts  --      0.1948                 0.0663                 0.0867
 IR Inten    --     23.2732                93.2455                46.7917

                     19                     20                     21
                      A                      A                      A
 Frequencies --    362.0004               385.6388               409.5747
 Red. masses --      3.6410                 1.7249                 4.8735
 Frc consts  --      0.2811                 0.1511                 0.4817
 IR Inten    --    101.3195                50.7006               109.1963

                     22                     23                     24
                      A                      A                      A
 Frequencies --    487.4358               543.4580               588.3168
 Red. masses --      1.4086                 1.2013                 3.4634
 Frc consts  --      0.1972                 0.2090                 0.7063
 IR Inten    --     58.1807               287.2840               168.2079

                     25                     26                     27
                      A                      A                      A
 Frequencies --    598.8759               628.0292               660.5007
 Red. masses --      1.1875                 1.8120                 1.7514
 Frc consts  --      0.2509                 0.4211                 0.4502
 IR Inten    --    698.0765               234.7188               171.8714

                     28                     29                     30
                      A                      A                      A
 Frequencies --    677.1312               971.9699              1163.4330
 Red. masses --      1.4982                 1.0559                 1.0496
 Frc consts  --      0.4047                 0.5877                 0.8370
 IR Inten    --    267.6301                51.1666               102.8259

                     31                     32                     33
                      A                      A                      A
 Frequencies --   1288.7926              1333.0103              1409.8820
 Red. masses --      1.0370                 1.0643                 1.0705
 Frc consts  --      1.0149                 1.1142                 1.2537
 IR Inten    --      0.6856               281.8308               381.9683

                     34                     35                     36
                      A                      A                      A
 Frequencies --   1530.8317              1717.2855              1724.5617
 Red. masses --      1.1241                 1.0811                 1.0879
 Frc consts  --      1.5521                 1.8785                 1.9063
 IR Inten    --   3065.4777               147.2509               207.4521

                     37                     38                     39
                      A                      A                      A
 Frequencies --   1735.8570              1737.6739              1784.1346
 Red. masses --      1.0823                 1.0933                 1.0592
 Frc consts  --      1.9215                 1.9451                 1.9865
 IR Inten    --    611.3002                18.3853                18.5436

                     40                     41                     42
                      A                      A                      A
 Frequencies --   1795.4254              2369.9372              2405.7348
 Red. masses --      1.0623                 1.1242                 1.0460
 Frc consts  --      2.0175                 3.7201                 3.5668
 IR Inten    --    695.1013              3115.9199              2286.2050

                     43                     44                     45
                      A                      A                      A
 Frequencies --   3689.8924              3714.9034              3715.5819
 Red. masses --      1.0405                 1.0405                 1.0404
 Frc consts  --      8.3464                 8.4606                 8.4627
 IR Inten    --     80.2519                38.6126                61.7424

                     46                     47                     48
                      A                      A                      A
 Frequencies --   3716.3290              3726.0059              3794.7676
 Red. masses --      1.0404                 1.0653                 1.0842
 Frc consts  --      8.4659                 8.7138                 9.1986
 IR Inten    --     47.6911               144.2435               183.7704

                     49                     50                     51
                      A                      A                      A
 Frequencies --   3822.1335              3822.7973              3824.5562
 Red. masses --      1.0839                 1.0841                 1.0837
 Frc consts  --      9.3295                 9.3342                 9.3397
 IR Inten    --     10.3995               280.9227               152.5207

 - Thermochemistry -
 -------------------
 Temperature   298.150 Kelvin.  Pressure   1.00000 Atm.
 Atom     1 has atomic number 80 and mass 201.97060

 Molecular mass:   310.03399 amu.
 Principal axes and moments of inertia in atomic units:
                           1         2         3
     Eigenvalues --  1133.226023160.737503666.91047
           X            1.00000   0.00071   0.00138
           Y           -0.00070   0.99996  -0.00909
           Z           -0.00139   0.00909   0.99996
 This molecule is an asymmetric top.
 Rotational symmetry number  1.
 Warning -- assumption of classical behavior for rotation
           may cause significant error
 Rotational temperatures (Kelvin)      0.07643     0.02740     0.02362
 Rotational constants (GHZ):           1.59257     0.57099     0.49217
    7 imaginary frequencies ignored.
 Zero-point vibrational energy     382666.1 (Joules/Mol)
                                   91.45939 (Kcal/Mol)
 Warning -- explicit consideration of  18 degrees of freedom as
           vibrations may cause significant error
 Vibrational temperatures:     37.55    70.22    84.65    93.04   154.93
          (Kelvin)            186.94   274.13   400.04   407.08   447.64
                              491.57   520.84   554.85   589.29   701.31
                              781.91   846.46   861.65   903.59   950.31
                              974.24  1398.45  1673.92  1854.29  1917.90
                             2028.51  2202.53  2470.79  2481.26  2497.51
                             2500.13  2566.97  2583.22  3409.81  3461.32
                             5308.93  5344.92  5345.89  5346.97  5360.89
                             5459.82  5499.20  5500.15  5502.68

 Zero-point correction=                           0.145750 (Hartree/Particle)
 Thermal correction to Energy=                    0.157796
 Thermal correction to Enthalpy=                  0.158740
 Thermal correction to Gibbs Free Energy=         0.104336
 Sum of electronic and zero-point Energies=           -254.220991
 Sum of electronic and thermal Energies=              -254.208945
 Sum of electronic and thermal Enthalpies=            -254.208000
 Sum of electronic and thermal Free Energies=         -254.262404

                     E (Thermal)             CV                S
                      KCal/Mol        Cal/Mol-Kelvin    Cal/Mol-Kelvin
 Total                   99.019             39.314            114.503
 Electronic               0.000              0.000              0.000
 Translational            0.889              2.981             43.091
 Rotational               0.889              2.981             30.952
 Vibrational             97.241             33.353             40.459
 Vibration     1          0.593              1.985              6.106
 Vibration     2          0.595              1.978              4.865
 Vibration     3          0.596              1.974              4.496
 Vibration     4          0.597              1.971              4.309
 Vibration     5          0.606              1.943              3.310
 Vibration     6          0.612              1.923              2.947
 Vibration     7          0.634              1.853              2.223
 Vibration     8          0.679              1.714              1.546
 Vibration     9          0.682              1.705              1.516
 Vibration    10          0.700              1.652              1.356
 Vibration    11          0.721              1.592              1.204
 Vibration    12          0.736              1.551              1.113
 Vibration    13          0.754              1.501              1.017
 Vibration    14          0.774              1.449              0.928
 Vibration    15          0.843              1.278              0.690
 Vibration    16          0.899              1.154              0.558
 Vibration    17          0.946              1.057              0.470
 Vibration    18          0.957              1.034              0.452

 Normal termination of Gaussian 16 at Wed May 11 22:05:55 2022.
