 Gaussian 16, Revision A.03,
 Gaussian 16:  ES64L-G16RevA.03 25-Dec-2016

 ------------------------
 #p MP2(full) SDDAll freq
 ------------------------

 file 'w6s9.log' Now we use Def2-QZVPPD, but it was opt at: ---'ZORA-SR
 +SO PBE QZ4P'---
 ----------------------------------------------------------------------
 Symbolic Z-matrix:
 Charge =  2 Multiplicity = 1

                         Standard orientation:
 ---------------------------------------------------------------------
 Center     Atomic      Atomic             Coordinates (Angstroms)
 Number     Number       Type             X           Y           Z
 ---------------------------------------------------------------------
      1         80           0        0.114960   -0.127314   -0.163923
      2          8           0       -2.980198   -2.209903    0.620732
      3          1           0       -3.329846   -2.464253    1.492762
      4          1           0       -3.612056   -2.550825   -0.035706
      5          8           0       -3.085922    2.004291   -0.378681
      6          1           0       -3.665827    1.987790   -1.159801
      7          1           0       -3.546200    2.543124    0.288528
      8          8           0        2.019556   -0.428243   -0.873365
      9          1           0        2.906793   -0.430179   -0.205834
     10          1           0        2.091057   -1.138621   -1.537390
     11          8           0        1.066745    1.999709    0.853812
     12          1           0        0.923608    2.273652    1.776139
     13          1           0        1.202130    2.825742    0.358163
     14          8           0        3.969307   -0.358382    0.613756
     15          1           0        4.654911    0.293981    0.380008
     16          1           0        4.433059   -1.181140    0.854809
     17          8           0       -1.806912    0.007008    0.457215
     18          1           0       -2.342894   -0.899640    0.480866
     19          1           0       -2.372191    0.809670    0.073537
 ---------------------------------------------------------------------

 SCF Done:  E(RHF) =  -253.444144184     A.U. after   14 cycles
 E2 =    -0.9233274726D+00 EUMP2 =    -0.25436747165670D+03
 E2 =    -0.9233274726D+00 EUMP2 =    -0.25436747165670D+03

 The electronic state is 1-A.
 Alpha  occ. eigenvalues --   -5.41382  -3.41018  -3.40641  -3.40392  -1.69180
 Alpha  occ. eigenvalues --   -1.67095  -1.65829  -1.65752  -1.64647  -1.63010
 Alpha  occ. eigenvalues --   -1.06782  -1.05762  -1.05464  -1.02370  -1.00491
 Alpha  occ. eigenvalues --   -1.00358  -0.99863  -0.98586  -0.98196  -0.97770
 Alpha  occ. eigenvalues --   -0.96982  -0.94451  -0.90982  -0.87833  -0.86002
 Alpha  occ. eigenvalues --   -0.84419  -0.83154  -0.82435  -0.81051  -0.80336
 Alpha  occ. eigenvalues --   -0.79994  -0.79889  -0.78200
 Alpha virt. eigenvalues --   -0.23819  -0.18379  -0.16357  -0.14669  -0.14413
 Alpha virt. eigenvalues --   -0.09822  -0.09484  -0.08233  -0.07549  -0.05923
 Alpha virt. eigenvalues --   -0.05261  -0.05101  -0.03386  -0.02662  -0.02502

 Mulliken charges:
               1
     1  Hg   1.362518
     2  O   -0.931483
     3  H    0.510622
     4  H    0.506506
     5  O   -0.927925
     6  H    0.504494
     7  H    0.510166
     8  O   -1.045805
     9  H    0.635303
    10  H    0.528894
    11  O   -0.947991
    12  H    0.506227
    13  H    0.504952
    14  O   -0.902064
    15  H    0.520126
    16  H    0.515467
    17  O   -1.097816
    18  H    0.623480
    19  H    0.624331
 Sum of Mulliken charges =   2.00000

 Dipole moment (field-independent basis, Debye):
    X=             -1.2762    Y=             -0.3163    Z=              0.2659  Tot=              1.3414
 Quadrupole moment (field-independent basis, Debye-Ang):
   XX=             48.9350   YY=            -19.1520   ZZ=            -45.2602
   XY=             -3.6860   XZ=              1.4254   YZ=              2.0638

  Exact polarizability:  70.073   0.382  54.765  -0.119   0.942  47.451
 Approx polarizability:  37.736   0.457  35.699   0.789   0.127  34.902

 ******    7 imaginary frequencies (negative Signs) ******

                      1                      2                      3
                      A                      A                      A
 Frequencies --   -430.0734              -362.4811              -359.1300
 Red. masses --      1.0145                 1.0129                 1.0301
 Frc consts  --      0.1106                 0.0784                 0.0783
 IR Inten    --      9.8639                 1.0574                50.0806

                      4                      5                      6
                      A                      A                      A
 Frequencies --   -322.5757               -96.5683               -74.8590
 Red. masses --      1.0339                 2.7959                 2.6496
 Frc consts  --      0.0634                 0.0154                 0.0087
 IR Inten    --     48.0220                 7.4066                28.4985

                      7                      8                      9
                      A                      A                      A
 Frequencies --    -69.3889                26.8343                50.4543
 Red. masses --      2.9396                 5.2419                 5.2067
 Frc consts  --      0.0083                 0.0022                 0.0078
 IR Inten    --     33.4805                 6.4919                 5.7733

                     10                     11                     12
                      A                      A                      A
 Frequencies --     58.3516                69.0242               107.4275
 Red. masses --      5.3212                 5.2078                 6.2810
 Frc consts  --      0.0107                 0.0146                 0.0427
 IR Inten    --      1.0885                 1.3409                 2.0530

                     13                     14                     15
                      A                      A                      A
 Frequencies --    129.5859               191.3433               278.0767
 Red. masses --      5.8953                 6.2687                 1.2567
 Frc consts  --      0.0583                 0.1352                 0.0573
 IR Inten    --      8.8823                 2.2464                 7.7601

                     16                     17                     18
                      A                      A                      A
 Frequencies --    282.1539               307.0265               341.5317
 Red. masses --      3.0502                 1.1524                 1.2661
 Frc consts  --      0.1431                 0.0640                 0.0870
 IR Inten    --     14.4333                93.5258                40.4345

                     19                     20                     21
                      A                      A                      A
 Frequencies --    362.2614               381.2558               409.6373
 Red. masses --      3.5985                 1.7365                 4.7998
 Frc consts  --      0.2782                 0.1487                 0.4745
 IR Inten    --     93.6182                59.7059               112.7789

                     22                     23                     24
                      A                      A                      A
 Frequencies --    482.7268               537.4672               588.2602
 Red. masses --      1.4057                 1.1898                 3.7972
 Frc consts  --      0.1930                 0.2025                 0.7742
 IR Inten    --     65.6653               344.2815               167.1295

                     25                     26                     27
                      A                      A                      A
 Frequencies --    600.1457               629.3129               662.1471
 Red. masses --      1.1669                 1.8197                 1.5873
 Frc consts  --      0.2476                 0.4246                 0.4100
 IR Inten    --    685.0731               211.2495               198.4502

                     28                     29                     30
                      A                      A                      A
 Frequencies --    676.7112               972.2007              1166.5627
 Red. masses --      1.6411                 1.0579                 1.0495
 Frc consts  --      0.4428                 0.5891                 0.8415
 IR Inten    --    209.5771                44.5900               101.0611

                     31                     32                     33
                      A                      A                      A
 Frequencies --   1291.3042              1336.3495              1405.4633
 Red. masses --      1.0374                 1.0629                 1.0674
 Frc consts  --      1.0192                 1.1184                 1.2422
 IR Inten    --      7.9710               281.5994               327.7387

                     34                     35                     36
                      A                      A                      A
 Frequencies --   1562.3658              1714.8607              1724.6497
 Red. masses --      1.1224                 1.0807                 1.0880
 Frc consts  --      1.6142                 1.8725                 1.9067
 IR Inten    --   2871.2042               147.3747               170.8949

                     37                     38                     39
                      A                      A                      A
 Frequencies --   1736.8710              1737.8355              1782.7510
 Red. masses --      1.0935                 1.0830                 1.0596
 Frc consts  --      1.9435                 1.9270                 1.9842
 IR Inten    --     14.3241               718.1690                20.6951

                     40                     41                     42
                      A                      A                      A
 Frequencies --   1797.2169              2365.8214              2402.4976
 Red. masses --      1.0628                 1.1239                 1.0478
 Frc consts  --      2.0226                 3.7062                 3.5633
 IR Inten    --    856.8272              3109.4326              2318.4276

                     43                     44                     45
                      A                      A                      A
 Frequencies --   3693.5102              3713.8881              3715.4487
 Red. masses --      1.0404                 1.0405                 1.0406
 Frc consts  --      8.3627                 8.4559                 8.4633
 IR Inten    --     78.9936                40.8757                68.0648

                     46                     47                     48
                      A                      A                      A
 Frequencies --   3718.3830              3729.4730              3798.2050
 Red. masses --      1.0402                 1.0654                 1.0842
 Frc consts  --      8.4737                 8.7306                 9.2156
 IR Inten    --     38.3892               147.1992               182.4116

                     49                     50                     51
                      A                      A                      A
 Frequencies --   3821.0424              3822.8975              3827.3097
 Red. masses --      1.0839                 1.0841                 1.0838
 Frc consts  --      9.3241                 9.3346                 9.3541
 IR Inten    --     96.8395               201.4685               146.7224

 - Thermochemistry -
 -------------------
 Temperature   298.150 Kelvin.  Pressure   1.00000 Atm.
 Atom     1 has atomic number 80 and mass 201.97060

 Molecular mass:   310.03399 amu.
 Principal axes and moments of inertia in atomic units:
                           1         2         3
     Eigenvalues --  1116.544553072.956543779.88938
           X            1.00000  -0.00047   0.00195
           Y            0.00047   1.00000  -0.00097
           Z           -0.00195   0.00097   1.00000
 This molecule is an asymmetric top.
 Rotational symmetry number  1.
 Warning -- assumption of classical behavior for rotation
           may cause significant error
 Rotational temperatures (Kelvin)      0.07757     0.02819     0.02291
 Rotational constants (GHZ):           1.61636     0.58730     0.47746
    7 imaginary frequencies ignored.
 Zero-point vibrational energy     382856.7 (Joules/Mol)
                                   91.50495 (Kcal/Mol)
 Warning -- explicit consideration of  18 degrees of freedom as
           vibrations may cause significant error
 Vibrational temperatures:     38.61    72.59    83.95    99.31   154.56
          (Kelvin)            186.45   275.30   400.09   405.96   441.74
                              491.39   521.21   548.54   589.38   694.54
                              773.30   846.38   863.48   905.44   952.68
                              973.64  1398.78  1678.42  1857.90  1922.71
                             2022.15  2247.90  2467.30  2481.39  2498.97
                             2500.36  2564.98  2585.79  3403.89  3456.66
                             5314.14  5343.46  5345.70  5349.92  5365.88
                             5464.77  5497.63  5500.30  5506.65

 Zero-point correction=                           0.145822 (Hartree/Particle)
 Thermal correction to Energy=                    0.157871
 Thermal correction to Enthalpy=                  0.158815
 Thermal correction to Gibbs Free Energy=         0.104498
 Sum of electronic and zero-point Energies=           -254.221649
 Sum of electronic and thermal Energies=              -254.209601
 Sum of electronic and thermal Enthalpies=            -254.208657
 Sum of electronic and thermal Free Energies=         -254.262974

                     E (Thermal)             CV                S
                      KCal/Mol        Cal/Mol-Kelvin    Cal/Mol-Kelvin
 Total                   99.065             39.334            114.319
 Electronic               0.000              0.000              0.000
 Translational            0.889              2.981             43.091
 Rotational               0.889              2.981             30.940
 Vibrational             97.288             33.373             40.289
 Vibration     1          0.593              1.984              6.051
 Vibration     2          0.595              1.977              4.799
 Vibration     3          0.596              1.974              4.512
 Vibration     4          0.598              1.969              4.181
 Vibration     5          0.606              1.943              3.315
 Vibration     6          0.612              1.924              2.952
 Vibration     7          0.634              1.852              2.215
 Vibration     8          0.679              1.714              1.545
 Vibration     9          0.681              1.707              1.521
 Vibration    10          0.697              1.660              1.378
 Vibration    11          0.721              1.592              1.205
 Vibration    12          0.736              1.550              1.112
 Vibration    13          0.751              1.510              1.034
 Vibration    14          0.774              1.449              0.928
 Vibration    15          0.839              1.288              0.703
 Vibration    16          0.892              1.167              0.571
 Vibration    17          0.945              1.057              0.470
 Vibration    18          0.958              1.031              0.449

 Normal termination of Gaussian 16 at Wed May 11 21:54:54 2022.
