 Gaussian 16, Revision A.03,
 Gaussian 16:  ES64L-G16RevA.03 25-Dec-2016

 ------------------------
 #p MP2(full) SDDAll freq
 ------------------------

 file 'w6s19.log' Now we use Def2-QZVPPD, but it was opt at: ---'ZORA-S
 R+SO PBE QZ4P'---
 ----------------------------------------------------------------------
 Symbolic Z-matrix:
 Charge =  2 Multiplicity = 1

                         Standard orientation:
 ---------------------------------------------------------------------
 Center     Atomic      Atomic             Coordinates (Angstroms)
 Number     Number       Type             X           Y           Z
 ---------------------------------------------------------------------
      1         80           0        0.280173   -0.184950   -0.129223
      2          8           0       -1.588125   -0.671215   -0.580646
      3          1           0       -1.636242   -0.943126   -1.514720
      4          1           0       -2.936331   -0.608605    0.179566
      5          8           0        3.892283   -1.441982    0.343767
      6          1           0        4.601142   -1.463498   -0.321455
      7          1           0        4.292778   -1.731964    1.181479
      8          8           0       -3.797103   -0.586647    0.742036
      9          1           0       -4.605301    0.096425    0.405550
     10          1           0       -4.111702   -1.490390    0.924413
     11          8           0        2.702158    2.753347    0.057469
     12          1           0        3.047718    3.118383   -0.774688
     13          1           0        3.125568    3.254781    0.775021
     14          8           0       -5.510814    1.021879    0.051521
     15          1           0       -5.883567    1.571604    0.763961
     16          1           0       -6.247482    0.774465   -0.534705
     17          8           0        2.128467    0.334622    0.464090
     18          1           0        2.900302   -0.378040    0.374903
     19          1           0        2.424364    1.315965    0.252645
 ---------------------------------------------------------------------

 SCF Done:  E(RHF) =  -253.445731064     A.U. after   14 cycles
 E2 =    -0.9289356349D+00 EUMP2 =    -0.25437466669902D+03
 E2 =    -0.9289356349D+00 EUMP2 =    -0.25437466669902D+03

 The electronic state is 1-A.
 Alpha  occ. eigenvalues --   -5.40515  -3.40016  -3.39473  -3.39433  -1.70534
 Alpha  occ. eigenvalues --   -1.66269  -1.66140  -1.64682  -1.62317  -1.59072
 Alpha  occ. eigenvalues --   -1.06384  -1.05187  -1.04752  -1.03205  -1.01333
 Alpha  occ. eigenvalues --   -0.99597  -0.99404  -0.99305  -0.96833  -0.96165
 Alpha  occ. eigenvalues --   -0.96164  -0.91306  -0.89076  -0.87287  -0.84505
 Alpha  occ. eigenvalues --   -0.83460  -0.83234  -0.81176  -0.79630  -0.79123
 Alpha  occ. eigenvalues --   -0.78620  -0.77050  -0.76371
 Alpha virt. eigenvalues --   -0.21678  -0.17122  -0.16813  -0.13491  -0.12955
 Alpha virt. eigenvalues --   -0.09249  -0.08702  -0.07596  -0.06418  -0.04970
 Alpha virt. eigenvalues --   -0.04833  -0.04189  -0.03734  -0.02941  -0.01442

 Mulliken charges:
               1
     1  Hg   1.309757
     2  O   -1.114059
     3  H    0.498473
     4  H    0.645406
     5  O   -0.927706
     6  H    0.506576
     7  H    0.508925
     8  O   -0.928398
     9  H    0.620398
    10  H    0.524884
    11  O   -0.935190
    12  H    0.503784
    13  H    0.510544
    14  O   -0.895451
    15  H    0.513325
    16  H    0.512367
    17  O   -1.111830
    18  H    0.630601
    19  H    0.627594
 Sum of Mulliken charges =   2.00000

 Dipole moment (field-independent basis, Debye):
    X=             -3.8695    Y=              1.5351    Z=             -0.2226  Tot=              4.1688
 Quadrupole moment (field-independent basis, Debye-Ang):
   XX=            115.0355   YY=            -28.1737   ZZ=            -47.6577
   XY=              5.3920   XZ=             -1.9708   YZ=             -0.4735

  Exact polarizability:  78.689   1.105  53.559   2.906  -0.008  46.475
 Approx polarizability:  42.238  -0.084  35.021   0.859   0.266  34.906

 ******    7 imaginary frequencies (negative Signs) ******

                      1                      2                      3
                      A                      A                      A
 Frequencies --   -370.9969              -369.9884              -332.9431
 Red. masses --      1.0127                 1.0248                 1.0281
 Frc consts  --      0.0821                 0.0827                 0.0671
 IR Inten    --      5.6755                45.1829                54.0809

                      4                      5                      6
                      A                      A                      A
 Frequencies --   -176.7714               -97.1469               -79.7176
 Red. masses --      1.3213                 2.7852                 2.6157
 Frc consts  --      0.0243                 0.0155                 0.0098
 IR Inten    --     43.9796                 2.0828                47.8498

                      7                      8                      9
                      A                      A                      A
 Frequencies --    -27.2368                36.4759                47.7168
 Red. masses --      4.6436                 5.6275                 5.1751
 Frc consts  --      0.0020                 0.0044                 0.0069
 IR Inten    --     13.8931                 3.4767                 1.3971

                     10                     11                     12
                      A                      A                      A
 Frequencies --     52.1389               100.5336               126.3373
 Red. masses --      5.6180                 5.5540                 5.4468
 Frc consts  --      0.0090                 0.0331                 0.0512
 IR Inten    --      8.6578                 6.9502                18.9635

                     13                     14                     15
                      A                      A                      A
 Frequencies --    221.3021               270.1790               276.0789
 Red. masses --      3.5025                 2.9788                 1.2882
 Frc consts  --      0.1011                 0.1281                 0.0579
 IR Inten    --     75.5306                68.6495                 8.6344

                     16                     17                     18
                      A                      A                      A
 Frequencies --    296.8657               322.1694               366.2350
 Red. masses --      3.5154                 1.1360                 1.7900
 Frc consts  --      0.1825                 0.0695                 0.1415
 IR Inten    --     62.3615                74.4792                20.2097

                     19                     20                     21
                      A                      A                      A
 Frequencies --    412.4515               448.8028               481.7080
 Red. masses --      4.7438                 3.7260                 1.3828
 Frc consts  --      0.4755                 0.4422                 0.1890
 IR Inten    --    103.4758               339.1380                43.0717

                     22                     23                     24
                      A                      A                      A
 Frequencies --    580.0459               583.4480               602.6722
 Red. masses --      1.0778                 1.1423                 2.0570
 Frc consts  --      0.2137                 0.2291                 0.4402
 IR Inten    --     92.8364               711.0108                84.3060

                     25                     26                     27
                      A                      A                      A
 Frequencies --    640.1171               685.1007               696.0366
 Red. masses --      2.1818                 6.1773                 1.1974
 Frc consts  --      0.5267                 1.7083                 0.3418
 IR Inten    --    307.5509                26.3576               331.5858

                     28                     29                     30
                      A                      A                      A
 Frequencies --    988.6346              1155.1256              1206.8429
 Red. masses --      1.0906                 1.0515                 1.0547
 Frc consts  --      0.6280                 0.8266                 0.9050
 IR Inten    --     31.2519                98.8967               129.0431

                     31                     32                     33
                      A                      A                      A
 Frequencies --   1288.4612              1333.3574              1471.3024
 Red. masses --      1.0412                 1.0600                 1.0762
 Frc consts  --      1.0184                 1.1103                 1.3726
 IR Inten    --     40.9514               273.5723              1034.0064

                     34                     35                     36
                      A                      A                      A
 Frequencies --   1565.9091              1708.9643              1735.9228
 Red. masses --      1.0770                 1.0791                 1.0940
 Frc consts  --      1.5559                 1.8569                 1.9423
 IR Inten    --   1356.7259               115.7495                26.6655

                     37                     38                     39
                      A                      A                      A
 Frequencies --   1742.9990              1780.5003              1794.8918
 Red. masses --      1.0672                 1.0605                 1.0543
 Frc consts  --      1.9102                 1.9809                 2.0012
 IR Inten    --    492.7289                17.2001                83.9586

                     40                     41                     42
                      A                      A                      A
 Frequencies --   1855.0000              2365.4365              2485.0303
 Red. masses --      1.1219                 1.0957                 1.0746
 Frc consts  --      2.2746                 3.6122                 3.9100
 IR Inten    --   1587.3595              3167.0323              2945.3413

                     43                     44                     45
                      A                      A                      A
 Frequencies --   2777.2579              3706.6767              3721.7576
 Red. masses --      1.0687                 1.0406                 1.0405
 Frc consts  --      4.8566                 8.4235                 8.4918
 IR Inten    --   2079.1808                68.0288                50.9563

                     46                     47                     48
                      A                      A                      A
 Frequencies --   3724.4215              3734.5902              3750.7085
 Red. masses --      1.0405                 1.0663                 1.0647
 Frc consts  --      8.5037                 8.7620                 8.8251
 IR Inten    --     60.2406               103.0526               183.9027

                     49                     50                     51
                      A                      A                      A
 Frequencies --   3812.1184              3830.3759              3834.2800
 Red. masses --      1.0844                 1.0841                 1.0843
 Frc consts  --      9.2850                 9.3711                 9.3925
 IR Inten    --    188.4427               137.6847               175.9568

 - Thermochemistry -
 -------------------
 Temperature   298.150 Kelvin.  Pressure   1.00000 Atm.
 Atom     1 has atomic number 80 and mass 201.97060

 Molecular mass:   310.03399 amu.
 Principal axes and moments of inertia in atomic units:
                           1         2         3
     Eigenvalues --   915.537315109.441045810.68253
           X            0.99999   0.00348   0.00116
           Y           -0.00347   0.99997  -0.00635
           Z           -0.00118   0.00635   0.99998
 This molecule is an asymmetric top.
 Rotational symmetry number  1.
 Warning -- assumption of classical behavior for rotation
           may cause significant error
 Rotational temperatures (Kelvin)      0.09460     0.01695     0.01491
 Rotational constants (GHZ):           1.97124     0.35322     0.31059
    7 imaginary frequencies ignored.
 Zero-point vibrational energy     386495.4 (Joules/Mol)
                                   92.37461 (Kcal/Mol)
 Warning -- explicit consideration of  17 degrees of freedom as
           vibrations may cause significant error
 Vibrational temperatures:     52.48    68.65    75.02   144.65   181.77
          (Kelvin)            318.40   388.73   397.22   427.12   463.53
                              526.93   593.43   645.73   693.07   834.56
                              839.45   867.11   920.99   985.71  1001.44
                             1422.42  1661.97  1736.38  1853.81  1918.40
                             2116.88  2252.99  2458.82  2497.61  2507.79
                             2561.74  2582.45  2668.93  3403.34  3575.40
                             3995.85  5333.08  5354.78  5358.61  5373.24
                             5396.43  5484.79  5511.06  5516.67

 Zero-point correction=                           0.147208 (Hartree/Particle)
 Thermal correction to Energy=                    0.158379
 Thermal correction to Enthalpy=                  0.159323
 Thermal correction to Gibbs Free Energy=         0.106885
 Sum of electronic and zero-point Energies=           -254.227458
 Sum of electronic and thermal Energies=              -254.216287
 Sum of electronic and thermal Enthalpies=            -254.215343
 Sum of electronic and thermal Free Energies=         -254.267782

                     E (Thermal)             CV                S
                      KCal/Mol        Cal/Mol-Kelvin    Cal/Mol-Kelvin
 Total                   99.384             37.222            110.366
 Electronic               0.000              0.000              0.000
 Translational            0.889              2.981             43.091
 Rotational               0.889              2.981             31.675
 Vibrational             97.607             31.260             35.600
 Vibration     1          0.594              1.982              5.442
 Vibration     2          0.595              1.978              4.910
 Vibration     3          0.596              1.977              4.735
 Vibration     4          0.604              1.949              3.444
 Vibration     5          0.611              1.927              3.001
 Vibration     6          0.648              1.809              1.948
 Vibration     7          0.674              1.728              1.595
 Vibration     8          0.678              1.718              1.558
 Vibration     9          0.691              1.680              1.435
 Vibration    10          0.707              1.631              1.299
 Vibration    11          0.739              1.542              1.096
 Vibration    12          0.776              1.443              0.918
 Vibration    13          0.808              1.364              0.799
 Vibration    14          0.838              1.291              0.705
 Vibration    15          0.937              1.074              0.485
 Vibration    16          0.940              1.067              0.479
 Vibration    17          0.961              1.026              0.445

 Normal termination of Gaussian 16 at Wed May 11 22:13:12 2022.
