 Gaussian 16, Revision A.03,
 Gaussian 16:  ES64L-G16RevA.03 25-Dec-2016

 ------------------------
 #p MP2(full) SDDAll freq
 ------------------------

 file 'w6s20.log' Now we use Def2-QZVPPD, but it was opt at: ---'ZORA-S
 R+SO PBE QZ4P'---
 ----------------------------------------------------------------------
 Symbolic Z-matrix:
 Charge =  2 Multiplicity = 1

                         Standard orientation:
 ---------------------------------------------------------------------
 Center     Atomic      Atomic             Coordinates (Angstroms)
 Number     Number       Type             X           Y           Z
 ---------------------------------------------------------------------
      1         80           0       -0.295978   -0.190390   -0.216333
      2          1           0        4.626797    0.169100    0.557700
      3          8           0        3.738339   -0.288093    1.043545
      4          1           0        3.960397   -1.105328    1.525713
      5          1           0        1.767029   -1.098274   -1.236489
      6          8           0        1.617750   -0.694477   -0.361765
      7          1           0        2.907705   -0.435411    0.452549
      8          1           0       -3.189807    3.242588   -0.397718
      9          8           0       -2.695099    2.763389    0.289773
     10          1           0       -2.972341    3.144643    1.140654
     11          1           0       -2.908413   -0.384981    0.315365
     12          8           0       -2.234187    0.319409   -0.081284
     13          1           0       -2.465898    1.321691    0.124133
     14          1           0        6.037520    1.567798    0.468568
     15          8           0        5.645681    0.822170   -0.020539
     16          1           0        6.378348    0.325096   -0.426073
     17          1           0       -4.187138   -1.474805    1.644923
     18          8           0       -3.796365   -1.455772    0.754283
     19          1           0       -4.484887   -1.773916    0.145179
 ---------------------------------------------------------------------

 SCF Done:  E(RHF) =  -253.446230550     A.U. after   14 cycles
 E2 =    -0.9287032781D+00 EUMP2 =    -0.25437493382854D+03
 E2 =    -0.9287032781D+00 EUMP2 =    -0.25437493382854D+03

 The electronic state is 1-A.
 Alpha  occ. eigenvalues --   -5.40468  -3.39976  -3.39433  -3.39382  -1.70554
 Alpha  occ. eigenvalues --   -1.66227  -1.66045  -1.64658  -1.62178  -1.59048
 Alpha  occ. eigenvalues --   -1.06340  -1.05194  -1.04648  -1.03381  -1.01348
 Alpha  occ. eigenvalues --   -0.99448  -0.99333  -0.98641  -0.96822  -0.96127
 Alpha  occ. eigenvalues --   -0.96119  -0.92240  -0.88878  -0.87085  -0.84455
 Alpha  occ. eigenvalues --   -0.83228  -0.83063  -0.81152  -0.79946  -0.79081
 Alpha  occ. eigenvalues --   -0.78529  -0.77002  -0.76323
 Alpha virt. eigenvalues --   -0.21477  -0.17350  -0.16717  -0.13326  -0.12910
 Alpha virt. eigenvalues --   -0.09166  -0.08742  -0.07459  -0.06498  -0.05339
 Alpha virt. eigenvalues --   -0.04769  -0.04289  -0.03433  -0.02882  -0.01371

 Mulliken charges:
               1
     1  Hg   1.319346
     2  H    0.620085
     3  O   -0.924099
     4  H    0.522573
     5  H    0.496247
     6  O   -1.110655
     7  H    0.645186
     8  H    0.507938
     9  O   -0.929049
    10  H    0.504825
    11  H    0.632660
    12  O   -1.132105
    13  H    0.631897
    14  H    0.514787
    15  O   -0.899027
    16  H    0.513467
    17  H    0.506873
    18  O   -0.929769
    19  H    0.508820
 Sum of Mulliken charges =   2.00000

 Dipole moment (field-independent basis, Debye):
    X=              4.2899    Y=              1.4022    Z=              3.0857  Tot=              5.4673
 Quadrupole moment (field-independent basis, Debye-Ang):
   XX=            113.7879   YY=            -28.5196   ZZ=            -45.3317
   XY=             -6.0205   XZ=             -3.2206   YZ=              1.5194

  Exact polarizability:  78.988  -1.254  52.980  -2.030   0.000  46.488
 Approx polarizability:  42.306   0.023  35.057  -0.796   0.788  34.583

 ******    7 imaginary frequencies (negative Signs) ******

                      1                      2                      3
                      A                      A                      A
 Frequencies --   -364.8717              -361.8331              -327.6974
 Red. masses --      1.0126                 1.0254                 1.0287
 Frc consts  --      0.0794                 0.0791                 0.0651
 IR Inten    --      4.1460                47.5730                48.1264

                      4                      5                      6
                      A                      A                      A
 Frequencies --   -181.4133               -91.5175               -74.3519
 Red. masses --      1.3449                 2.8791                 2.6954
 Frc consts  --      0.0261                 0.0142                 0.0088
 IR Inten    --     42.9691                 4.4886                49.7589

                      7                      8                      9
                      A                      A                      A
 Frequencies --    -30.3699                35.6089                50.2650
 Red. masses --      4.4959                 5.6137                 5.0704
 Frc consts  --      0.0024                 0.0042                 0.0075
 IR Inten    --      9.1710                 3.4702                 0.1473

                     10                     11                     12
                      A                      A                      A
 Frequencies --     59.0029               102.5420               127.5670
 Red. masses --      6.0404                 5.5609                 5.4201
 Frc consts  --      0.0124                 0.0345                 0.0520
 IR Inten    --     11.1840                 7.8208                19.0425

                     13                     14                     15
                      A                      A                      A
 Frequencies --    224.2926               275.7694               278.0421
 Red. masses --      3.3517                 3.9734                 1.1326
 Frc consts  --      0.0993                 0.1780                 0.0516
 IR Inten    --     88.9065                66.6925                 1.3427

                     16                     17                     18
                      A                      A                      A
 Frequencies --    298.2955               326.1895               364.1480
 Red. masses --      4.0045                 1.1398                 1.6752
 Frc consts  --      0.2099                 0.0715                 0.1309
 IR Inten    --     43.4825                68.3257                33.5588

                     19                     20                     21
                      A                      A                      A
 Frequencies --    412.6764               448.9414               480.0021
 Red. masses --      4.8418                 3.6300                 1.3540
 Frc consts  --      0.4858                 0.4311                 0.1838
 IR Inten    --    109.8870               345.3010                39.6847

                     22                     23                     24
                      A                      A                      A
 Frequencies --    586.8982               590.8857               606.5870
 Red. masses --      1.0760                 1.1582                 2.2798
 Frc consts  --      0.2184                 0.2383                 0.4942
 IR Inten    --     82.0235               724.9410                39.3880

                     25                     26                     27
                      A                      A                      A
 Frequencies --    643.4502               685.8374               692.2671
 Red. masses --      2.0329                 4.4446                 1.2766
 Frc consts  --      0.4959                 1.2317                 0.3604
 IR Inten    --    351.8792                32.6898               333.2225

                     28                     29                     30
                      A                      A                      A
 Frequencies --    996.2056              1196.6402              1214.8986
 Red. masses --      1.0891                 1.0481                 1.0535
 Frc consts  --      0.6368                 0.8843                 0.9161
 IR Inten    --     32.8638                81.0566               106.1387

                     31                     32                     33
                      A                      A                      A
 Frequencies --   1272.4429              1317.4712              1461.9360
 Red. masses --      1.0401                 1.0631                 1.0799
 Frc consts  --      0.9922                 1.0872                 1.3598
 IR Inten    --      5.0062               333.4873              1112.5015

                     34                     35                     36
                      A                      A                      A
 Frequencies --   1578.4072              1706.8776              1736.4290
 Red. masses --      1.0808                 1.0776                 1.0939
 Frc consts  --      1.5865                 1.8497                 1.9433
 IR Inten    --   1379.7937                97.1054                24.7582

                     37                     38                     39
                      A                      A                      A
 Frequencies --   1744.8711              1779.1751              1799.4469
 Red. masses --      1.0676                 1.0613                 1.0520
 Frc consts  --      1.9152                 1.9793                 2.0070
 IR Inten    --    472.6843                31.1849                82.6274

                     40                     41                     42
                      A                      A                      A
 Frequencies --   1850.8702              2388.5964              2447.0336
 Red. masses --      1.1193                 1.1041                 1.0694
 Frc consts  --      2.2591                 3.7114                 3.7727
 IR Inten    --   1605.3691              3145.4837              2930.3377

                     43                     44                     45
                      A                      A                      A
 Frequencies --   2757.9989              3703.9725              3716.7545
 Red. masses --      1.0684                 1.0405                 1.0406
 Frc consts  --      4.7883                 8.4108                 8.4696
 IR Inten    --   2133.4226                69.3547                52.6093

                     46                     47                     48
                      A                      A                      A
 Frequencies --   3718.9468              3721.5941              3745.8195
 Red. masses --      1.0412                 1.0653                 1.0644
 Frc consts  --      8.4844                 8.6935                 8.7994
 IR Inten    --     75.2523                80.8712               177.2848

                     49                     50                     51
                      A                      A                      A
 Frequencies --   3809.9483              3825.0916              3827.5859
 Red. masses --      1.0846                 1.0841                 1.0841
 Frc consts  --      9.2763                 9.3454                 9.3581
 IR Inten    --    192.2351               117.6883               194.5962

 - Thermochemistry -
 -------------------
 Temperature   298.150 Kelvin.  Pressure   1.00000 Atm.
 Atom     1 has atomic number 80 and mass 201.97060

 Molecular mass:   310.03399 amu.
 Principal axes and moments of inertia in atomic units:
                           1         2         3
     Eigenvalues --   948.339395231.807875836.90025
           X            0.99999  -0.00390  -0.00356
           Y            0.00388   0.99996  -0.00824
           Z            0.00359   0.00823   0.99996
 This molecule is an asymmetric top.
 Rotational symmetry number  1.
 Warning -- assumption of classical behavior for rotation
           may cause significant error
 Rotational temperatures (Kelvin)      0.09133     0.01656     0.01484
 Rotational constants (GHZ):           1.90305     0.34496     0.30920
    7 imaginary frequencies ignored.
 Zero-point vibrational energy     386443.3 (Joules/Mol)
                                   92.36218 (Kcal/Mol)
 Warning -- explicit consideration of  17 degrees of freedom as
           vibrations may cause significant error
 Vibrational temperatures:     51.23    72.32    84.89   147.54   183.54
          (Kelvin)            322.71   396.77   400.04   429.18   469.31
                              523.93   593.75   645.93   690.62   844.42
                              850.15   872.74   925.78   986.77   996.02
                             1433.32  1721.70  1747.97  1830.76  1895.55
                             2103.40  2270.98  2455.82  2498.33  2510.48
                             2559.84  2589.00  2662.99  3436.66  3520.74
                             3968.15  5329.19  5347.58  5350.73  5354.54
                             5389.40  5481.67  5503.45  5507.04

 Zero-point correction=                           0.147188 (Hartree/Particle)
 Thermal correction to Energy=                    0.158304
 Thermal correction to Enthalpy=                  0.159248
 Thermal correction to Gibbs Free Energy=         0.107011
 Sum of electronic and zero-point Energies=           -254.227745
 Sum of electronic and thermal Energies=              -254.216630
 Sum of electronic and thermal Enthalpies=            -254.215686
 Sum of electronic and thermal Free Energies=         -254.267923

                     E (Thermal)             CV                S
                      KCal/Mol        Cal/Mol-Kelvin    Cal/Mol-Kelvin
 Total                   99.337             37.127            109.942
 Electronic               0.000              0.000              0.000
 Translational            0.889              2.981             43.091
 Rotational               0.889              2.981             31.738
 Vibrational             97.560             31.166             35.113
 Vibration     1          0.594              1.982              5.490
 Vibration     2          0.595              1.977              4.807
 Vibration     3          0.596              1.974              4.490
 Vibration     4          0.605              1.947              3.405
 Vibration     5          0.611              1.926              2.982
 Vibration     6          0.649              1.804              1.924
 Vibration     7          0.677              1.718              1.560
 Vibration     8          0.679              1.714              1.546
 Vibration     9          0.691              1.677              1.426
 Vibration    10          0.710              1.623              1.279
 Vibration    11          0.738              1.546              1.104
 Vibration    12          0.776              1.443              0.917
 Vibration    13          0.808              1.363              0.799
 Vibration    14          0.836              1.294              0.710
 Vibration    15          0.944              1.060              0.473
 Vibration    16          0.948              1.051              0.466
 Vibration    17          0.965              1.018              0.438

 Normal termination of Gaussian 16 at Wed May 11 22:15:00 2022.
