 Gaussian 16, Revision A.03,
 Gaussian 16:  ES64L-G16RevA.03 25-Dec-2016

 ------------------------
 #p MP2(full) SDDAll freq
 ------------------------

 file 'w6s3.log' Now we use Def2-QZVPPD, but it was opt at: ---'ZORA-SR
 +SO PBE QZ4P'---
 ----------------------------------------------------------------------
 Symbolic Z-matrix:
 Charge =  2 Multiplicity = 1

                         Standard orientation:
 ---------------------------------------------------------------------
 Center     Atomic      Atomic             Coordinates (Angstroms)
 Number     Number       Type             X           Y           Z
 ---------------------------------------------------------------------
      1         80           0        1.119800   -0.111916   -0.183577
      2          8           0       -5.416174   -0.575078   -0.256450
      3          1           0       -5.811711   -1.457725   -0.147509
      4          1           0       -6.143991    0.202639   -0.115154
      5          8           0       -3.263474   -0.275133    0.985063
      6          1           0       -3.223114   -0.416654    1.944725
      7          1           0       -4.515605   -0.478344    0.295408
      8          8           0       -7.039253    1.286366   -0.008021
      9          1           0       -7.752916    1.291354    0.652663
     10          1           0       -7.408358    1.661781   -0.826037
     11          8           0        2.857877    0.941979   -0.425395
     12          1           0        3.755124    0.743911    0.176446
     13          1           0        3.094062    1.131014   -1.352091
     14          8           0        4.802774    0.528815    1.017922
     15          1           0        5.564397    0.003795    0.712606
     16          1           0        5.161406    1.302710    1.489218
     17          8           0       -0.617406   -0.980604    0.105960
     18          1           0       -2.382749   -0.516270    0.618749
     19          1           0       -0.515300   -1.925726   -0.115460
 ---------------------------------------------------------------------

 SCF Done:  E(RHF) =  -253.439626158     A.U. after   14 cycles
 E2 =    -0.9297621756D+00 EUMP2 =    -0.25436938833381D+03
 E2 =    -0.9297621756D+00 EUMP2 =    -0.25436938833381D+03

 The electronic state is 1-A.
 Alpha  occ. eigenvalues --   -5.40150  -3.39675  -3.39078  -3.39061  -1.68444
 Alpha  occ. eigenvalues --   -1.68245  -1.65311  -1.63138  -1.61357  -1.56630
 Alpha  occ. eigenvalues --   -1.06230  -1.03759  -1.03300  -1.02526  -1.01435
 Alpha  occ. eigenvalues --   -0.99374  -0.98159  -0.97001  -0.96588  -0.95772
 Alpha  occ. eigenvalues --   -0.95769  -0.90204  -0.86995  -0.86280  -0.84925
 Alpha  occ. eigenvalues --   -0.82376  -0.81811  -0.81292  -0.80538  -0.78030
 Alpha  occ. eigenvalues --   -0.76363  -0.74091  -0.73905
 Alpha virt. eigenvalues --   -0.21912  -0.16759  -0.16610  -0.13360  -0.12248
 Alpha virt. eigenvalues --   -0.07919  -0.07602  -0.06516  -0.04943  -0.04929
 Alpha virt. eigenvalues --   -0.04434  -0.03072  -0.02551  -0.02002  -0.01260

 Mulliken charges:
               1
     1  Hg   1.262913
     2  O   -0.911266
     3  H    0.513506
     4  H    0.611763
     5  O   -0.980227
     6  H    0.486717
     7  H    0.621183
     8  O   -0.905137
     9  H    0.499730
    10  H    0.502702
    11  O   -1.039674
    12  H    0.633445
    13  H    0.533818
    14  O   -0.910052
    15  H    0.515954
    16  H    0.519695
    17  O   -1.019948
    18  H    0.588994
    19  H    0.475882
 Sum of Mulliken charges =   2.00000

 Dipole moment (field-independent basis, Debye):
    X=             -6.8753    Y=             -0.0385    Z=              0.9489  Tot=              6.9405
 Quadrupole moment (field-independent basis, Debye-Ang):
   XX=            194.8615   YY=            -43.3625   ZZ=            -45.5130
   XY=              7.6495   XZ=             -3.7642   YZ=             -1.5465

  Exact polarizability:  83.071   4.475  49.008   0.575  -0.601  47.706
 Approx polarizability:  45.259   0.647  33.890   0.001   0.040  34.112

 ******    7 imaginary frequencies (negative Signs) ******

                      1                      2                      3
                      A                      A                      A
 Frequencies --   -364.4389              -320.5120              -254.0191
 Red. masses --      1.0199                 1.0295                 1.0607
 Frc consts  --      0.0798                 0.0623                 0.0403
 IR Inten    --     36.9278                49.4505               101.9426

                      4                      5                      6
                      A                      A                      A
 Frequencies --   -183.8751               -99.9433               -75.4501
 Red. masses --      1.3909                 2.6322                 3.5431
 Frc consts  --      0.0277                 0.0155                 0.0119
 IR Inten    --     44.4656                 9.5545                12.6345

                      7                      8                      9
                      A                      A                      A
 Frequencies --    -43.4675                32.7191                52.2750
 Red. masses --      5.1996                 5.7036                 5.4671
 Frc consts  --      0.0058                 0.0036                 0.0088
 IR Inten    --     12.5537                 4.1829                 2.2973

                     10                     11                     12
                      A                      A                      A
 Frequencies --     83.6017                96.3829               115.2198
 Red. masses --      5.8376                 4.8279                 3.9527
 Frc consts  --      0.0240                 0.0264                 0.0309
 IR Inten    --     36.7353                 7.8325                 7.0676

                     13                     14                     15
                      A                      A                      A
 Frequencies --    159.2740               220.9456               290.7724
 Red. masses --      7.3878                 3.3631                 1.1346
 Frc consts  --      0.1104                 0.0967                 0.0565
 IR Inten    --     20.2914                36.8295                80.8090

                     16                     17                     18
                      A                      A                      A
 Frequencies --    295.6469               370.7109               392.7039
 Red. masses --      1.1702                 3.9314                 4.4494
 Frc consts  --      0.0603                 0.3183                 0.4043
 IR Inten    --    115.7878               142.0425                68.3031

                     19                     20                     21
                      A                      A                      A
 Frequencies --    410.9605               416.9198               463.3087
 Red. masses --      1.1459                 3.4079                 1.4115
 Frc consts  --      0.1140                 0.3490                 0.1785
 IR Inten    --     59.7612               221.9067                53.8205

                     22                     23                     24
                      A                      A                      A
 Frequencies --    544.7404               578.1483               593.9714
 Red. masses --      1.2764                 1.0769                 4.5326
 Frc consts  --      0.2232                 0.2121                 0.9422
 IR Inten    --     30.6347               251.9450               127.0690

                     25                     26                     27
                      A                      A                      A
 Frequencies --    658.6599               666.8174               680.7355
 Red. masses --      1.4336                 1.1565                 4.5631
 Frc consts  --      0.3664                 0.3030                 1.2459
 IR Inten    --    336.5685               302.7484                49.4261

                     28                     29                     30
                      A                      A                      A
 Frequencies --    791.6753               975.5566              1029.5756
 Red. masses --      1.1335                 1.0659                 1.0571
 Frc consts  --      0.4186                 0.5977                 0.6602
 IR Inten    --    320.9553                31.7888                92.6661

                     31                     32                     33
                      A                      A                      A
 Frequencies --   1251.7990              1407.2908              1486.0905
 Red. masses --      1.0427                 1.0554                 1.0770
 Frc consts  --      0.9627                 1.2315                 1.4014
 IR Inten    --     91.9419               192.8572               542.8712

                     34                     35                     36
                      A                      A                      A
 Frequencies --   1652.9170              1707.9935              1747.7965
 Red. masses --      1.1047                 1.0789                 1.0868
 Frc consts  --      1.7783                 1.8544                 1.9561
 IR Inten    --   1163.1791                12.3975                21.7650

                     37                     38                     39
                      A                      A                      A
 Frequencies --   1763.5377              1798.6818              1804.3503
 Red. masses --      1.0822                 1.0461                 1.0489
 Frc consts  --      1.9830                 1.9939                 2.0119
 IR Inten    --    688.6012               189.0161                74.3820

                     40                     41                     42
                      A                      A                      A
 Frequencies --   1823.2468              2085.5894              2339.4285
 Red. masses --      1.0756                 1.1540                 1.0557
 Frc consts  --      2.1067                 2.9575                 3.4041
 IR Inten    --   2593.3470              4153.9642              1587.2264

                     43                     44                     45
                      A                      A                      A
 Frequencies --   3549.2453              3699.4864              3701.6724
 Red. masses --      1.0545                 1.0418                 1.0646
 Frc consts  --      7.8267                 8.4010                 8.5950
 IR Inten    --    705.9608               106.1494                78.8919

                     46                     47                     48
                      A                      A                      A
 Frequencies --   3718.7436              3733.9963              3759.5621
 Red. masses --      1.0405                 1.0655                 1.0641
 Frc consts  --      8.4777                 8.7525                 8.8615
 IR Inten    --     50.0619               167.0989               145.5582

                     49                     50                     51
                      A                      A                      A
 Frequencies --   3804.0558              3805.4343              3827.8898
 Red. masses --      1.0713                 1.0843                 1.0844
 Frc consts  --      9.1342                 9.2512                 9.3616
 IR Inten    --    153.2134               194.6510               169.3845

 - Thermochemistry -
 -------------------
 Temperature   298.150 Kelvin.  Pressure   1.00000 Atm.
 Atom     1 has atomic number 80 and mass 201.97060

 Molecular mass:   310.03399 amu.
 Principal axes and moments of inertia in atomic units:
                           1         2         3
     Eigenvalues --   488.135099056.672259169.02867
           X            0.99999   0.00330   0.00314
           Y           -0.00315   0.99893  -0.04620
           Z           -0.00328   0.04619   0.99893
 This molecule is an asymmetric top.
 Rotational symmetry number  1.
 Warning -- assumption of classical behavior for rotation
           may cause significant error
 Rotational temperatures (Kelvin)      0.17744     0.00956     0.00945
 Rotational constants (GHZ):           3.69722     0.19927     0.19683
    7 imaginary frequencies ignored.
 Zero-point vibrational energy     385138.5 (Joules/Mol)
                                   92.05031 (Kcal/Mol)
 Warning -- explicit consideration of  17 degrees of freedom as
           vibrations may cause significant error
 Vibrational temperatures:     47.08    75.21   120.28   138.67   165.78
          (Kelvin)            229.16   317.89   418.36   425.37   533.37
                              565.01   591.28   599.85   666.60   783.76
                              831.83   854.59   947.66   959.40   979.43
                             1139.04  1403.61  1481.33  1801.06  2024.78
                             2138.15  2378.18  2457.42  2514.69  2537.34
                             2587.90  2596.06  2623.25  3000.70  3365.92
                             5106.57  5322.74  5325.88  5350.44  5372.39
                             5409.17  5473.19  5475.17  5507.48

 Zero-point correction=                           0.146692 (Hartree/Particle)
 Thermal correction to Energy=                    0.158053
 Thermal correction to Enthalpy=                  0.158997
 Thermal correction to Gibbs Free Energy=         0.106180
 Sum of electronic and zero-point Energies=           -254.222697
 Sum of electronic and thermal Energies=              -254.211336
 Sum of electronic and thermal Enthalpies=            -254.210391
 Sum of electronic and thermal Free Energies=         -254.263208

                     E (Thermal)             CV                S
                      KCal/Mol        Cal/Mol-Kelvin    Cal/Mol-Kelvin
 Total                   99.180             38.014            111.163
 Electronic               0.000              0.000              0.000
 Translational            0.889              2.981             43.091
 Rotational               0.889              2.981             32.072
 Vibrational             97.402             32.053             36.000
 Vibration     1          0.594              1.983              5.657
 Vibration     2          0.596              1.977              4.729
 Vibration     3          0.600              1.960              3.804
 Vibration     4          0.603              1.952              3.526
 Vibration     5          0.608              1.937              3.179
 Vibration     6          0.621              1.892              2.558
 Vibration     7          0.648              1.809              1.951
 Vibration     8          0.687              1.691              1.469
 Vibration     9          0.690              1.682              1.441
 Vibration    10          0.743              1.532              1.077
 Vibration    11          0.760              1.486              0.990
 Vibration    12          0.775              1.446              0.923
 Vibration    13          0.780              1.433              0.902
 Vibration    14          0.821              1.331              0.757
 Vibration    15          0.900              1.151              0.555
 Vibration    16          0.935              1.079              0.489
 Vibration    17          0.952              1.045              0.460

 Normal termination of Gaussian 16 at Wed May 11 21:42:03 2022.
