 Gaussian 16, Revision A.03,
 Gaussian 16:  ES64L-G16RevA.03 25-Dec-2016

 ------------------------
 #p MP2(full) SDDAll freq
 ------------------------

 file 'w6s5.log' Now we use Def2-QZVPPD, but it was opt at: ---'ZORA-SR
 +SO PBE QZ4P'---
 ----------------------------------------------------------------------
 Symbolic Z-matrix:
 Charge =  2 Multiplicity = 1

                         Standard orientation:
 ---------------------------------------------------------------------
 Center     Atomic      Atomic             Coordinates (Angstroms)
 Number     Number       Type             X           Y           Z
 ---------------------------------------------------------------------
      1         80           0       -0.000248   -0.076955   -0.000164
      2          8           0       -1.983044   -0.128797   -0.244386
      3          1           0       -2.455652    0.695201   -0.718870
      4          1           0       -2.562119   -0.619573    0.499162
      5          8           0       -3.017132    1.786870   -1.465961
      6          1           0       -3.533090    2.486111   -1.028172
      7          1           0       -3.475092    1.589003   -2.301933
      8          8           0        1.982564   -0.127710    0.243743
      9          1           0        2.454564    0.696369    0.718598
     10          1           0        2.562830   -0.619377   -0.498568
     11          8           0        3.259096   -1.398246   -1.482298
     12          1           0        3.788364   -0.978634   -2.182461
     13          1           0        3.760033   -2.179818   -1.188601
     14          8           0        3.020812    1.785190    1.466688
     15          1           0        3.486072    1.582746    2.297584
     16          1           0        3.529675    2.491504    1.031868
     17          8           0       -3.260471   -1.396936    1.483069
     18          1           0       -3.783126   -0.975769    2.187905
     19          1           0       -3.767211   -2.174366    1.189734
 ---------------------------------------------------------------------

 SCF Done:  E(RHF) =  -253.449000945     A.U. after   14 cycles
 E2 =    -0.9259128610D+00 EUMP2 =    -0.25437491380637D+03
 E2 =    -0.9259128610D+00 EUMP2 =    -0.25437491380637D+03

 The electronic state is 1-A.
 Alpha  occ. eigenvalues --   -5.42419  -3.41953  -3.41397  -3.41387  -1.67403
 Alpha  occ. eigenvalues --   -1.67088  -1.65929  -1.65927  -1.63338  -1.62523
 Alpha  occ. eigenvalues --   -1.06553  -1.06512  -1.06184  -1.00658  -1.00632
 Alpha  occ. eigenvalues --   -1.00560  -1.00537  -0.98840  -0.98835  -0.98093
 Alpha  occ. eigenvalues --   -0.98085  -0.94830  -0.91057  -0.85341  -0.84414
 Alpha  occ. eigenvalues --   -0.84276  -0.83606  -0.81140  -0.80883  -0.79841
 Alpha  occ. eigenvalues --   -0.79782  -0.79735  -0.79497
 Alpha virt. eigenvalues --   -0.22761  -0.18203  -0.18075  -0.14217  -0.14202
 Alpha virt. eigenvalues --   -0.09618  -0.09497  -0.07784  -0.06441  -0.06083
 Alpha virt. eigenvalues --   -0.05992  -0.05270  -0.03585  -0.03154  -0.03070

 Mulliken charges:
               1
     1  Hg   1.354463
     2  O   -1.133985
     3  H    0.634105
     4  H    0.634337
     5  O   -0.926922
     6  H    0.509148
     7  H    0.511793
     8  O   -1.134460
     9  H    0.634324
    10  H    0.634470
    11  O   -0.928141
    12  H    0.510068
    13  H    0.512623
    14  O   -0.927261
    15  H    0.511689
    16  H    0.509360
    17  O   -0.928434
    18  H    0.510059
    19  H    0.512763
 Sum of Mulliken charges =   2.00000

 Dipole moment (field-independent basis, Debye):
    X=              0.0031    Y=              2.0222    Z=              0.0065  Tot=              2.0222
 Quadrupole moment (field-independent basis, Debye-Ang):
   XX=             60.7438   YY=            -29.9656   ZZ=            -32.9838
   XY=             -0.0378   XZ=             -3.5990   YZ=             -0.0076

  Exact polarizability:  71.163  -0.004  52.163   0.045  -0.005  51.202
 Approx polarizability:  38.412  -0.002  35.823  -0.454  -0.004  35.633

 ******    7 imaginary frequencies (negative Signs) ******

                      1                      2                      3
                      A                      A                      A
 Frequencies --   -353.3279              -350.6130              -349.6441
 Red. masses --      1.0097                 1.0196                 1.0284
 Frc consts  --      0.0743                 0.0738                 0.0741
 IR Inten    --      1.3915                14.4777                38.7693

                      4                      5                      6
                      A                      A                      A
 Frequencies --   -348.1189               -76.8503               -67.1595
 Red. masses --      1.0299                 2.9841                 2.8674
 Frc consts  --      0.0735                 0.0104                 0.0076
 IR Inten    --     51.6749                 0.4269                56.5951

                      7                      8                      9
                      A                      A                      A
 Frequencies --    -66.8184                46.4350                49.1847
 Red. masses --      2.8578                 5.2074                 5.3069
 Frc consts  --      0.0075                 0.0066                 0.0076
 IR Inten    --     51.8810                 0.3469                 1.9305

                     10                     11                     12
                      A                      A                      A
 Frequencies --     51.7502                57.1498               134.1801
 Red. masses --      5.0826                 5.6590                 5.9830
 Frc consts  --      0.0080                 0.0109                 0.0635
 IR Inten    --      0.3146                 7.8306                 6.8231

                     13                     14                     15
                      A                      A                      A
 Frequencies --    134.5300               287.9932               290.3601
 Red. masses --      5.7276                 4.6700                 4.8477
 Frc consts  --      0.0611                 0.2282                 0.2408
 IR Inten    --      9.6273                 2.2453                44.7508

                     16                     17                     18
                      A                      A                      A
 Frequencies --    294.0189               303.2185               376.5589
 Red. masses --      1.0747                 1.2076                 1.6093
 Frc consts  --      0.0547                 0.0654                 0.1344
 IR Inten    --      0.7119                 0.0232                13.5077

                     19                     20                     21
                      A                      A                      A
 Frequencies --    377.9405               417.6576               418.5559
 Red. masses --      1.6196                 4.6347                 4.6499
 Frc consts  --      0.1363                 0.4763                 0.4800
 IR Inten    --     20.3922               142.2899               155.2656

                     22                     23                     24
                      A                      A                      A
 Frequencies --    603.5339               604.8023               615.2203
 Red. masses --      1.1662                 1.1730                 2.2543
 Frc consts  --      0.2503                 0.2528                 0.5027
 IR Inten    --    622.7925               683.1119                37.3992

                     25                     26                     27
                      A                      A                      A
 Frequencies --    637.6161               667.1083               706.3170
 Red. masses --      1.2932                 1.8029                 4.8966
 Frc consts  --      0.3098                 0.4727                 1.4393
 IR Inten    --    450.1798                 0.0285                32.0377

                     28                     29                     30
                      A                      A                      A
 Frequencies --   1229.9353              1233.2042              1300.7559
 Red. masses --      1.0473                 1.0470                 1.0368
 Frc consts  --      0.9335                 0.9381                 1.0336
 IR Inten    --     60.8151                65.0712                 0.4219

                     31                     32                     33
                      A                      A                      A
 Frequencies --   1304.2255              1348.9326              1350.8002
 Red. masses --      1.0371                 1.0631                 1.0623
 Frc consts  --      1.0394                 1.1397                 1.1421
 IR Inten    --      0.3514               367.3703               277.4404

                     34                     35                     36
                      A                      A                      A
 Frequencies --   1690.0334              1699.2095              1734.9810
 Red. masses --      1.0701                 1.0721                 1.0968
 Frc consts  --      1.8009                 1.8238                 1.9453
 IR Inten    --     51.9639                15.8837                 4.4242

                     37                     38                     39
                      A                      A                      A
 Frequencies --   1735.2746              1776.1322              1778.8118
 Red. masses --      1.0969                 1.0636                 1.0619
 Frc consts  --      1.9460                 1.9768                 1.9796
 IR Inten    --      4.4548               102.4986                 4.7024

                     40                     41                     42
                      A                      A                      A
 Frequencies --   2216.9854              2226.7257              2229.5010
 Red. masses --      1.0815                 1.1390                 1.1064
 Frc consts  --      3.1320                 3.3274                 3.2402
 IR Inten    --   5585.1044              3663.0471              3620.6479

                     43                     44                     45
                      A                      A                      A
 Frequencies --   2335.4345              3712.0388              3712.1974
 Red. masses --      1.0514                 1.0405                 1.0405
 Frc consts  --      3.3787                 8.4476                 8.4479
 IR Inten    --    172.8366                47.3045                38.9602

                     46                     47                     48
                      A                      A                      A
 Frequencies --   3712.9037              3713.4885              3819.4421
 Red. masses --      1.0405                 1.0406                 1.0841
 Frc consts  --      8.4513                 8.4550                 9.3177
 IR Inten    --    149.4840                 0.6949                81.4651

                     49                     50                     51
                      A                      A                      A
 Frequencies --   3819.9757              3820.6780              3820.7960
 Red. masses --      1.0841                 1.0843                 1.0841
 Frc consts  --      9.3204                 9.3254                 9.3249
 IR Inten    --      3.6927               321.9822               248.3376

 - Thermochemistry -
 -------------------
 Temperature   298.150 Kelvin.  Pressure   1.00000 Atm.
 Atom     1 has atomic number 80 and mass 201.97060

 Molecular mass:   310.03399 amu.
 Principal axes and moments of inertia in atomic units:
                           1         2         3
     Eigenvalues --  1302.628243776.287643880.27392
           X            1.00000  -0.00002  -0.00170
           Y            0.00002   1.00000  -0.00006
           Z            0.00170   0.00006   1.00000
 This molecule is an asymmetric top.
 Rotational symmetry number  1.
 Warning -- assumption of classical behavior for rotation
           may cause significant error
 Rotational temperatures (Kelvin)      0.06649     0.02294     0.02232
 Rotational constants (GHZ):           1.38546     0.47791     0.46511
    7 imaginary frequencies ignored.
 Zero-point vibrational energy     385177.2 (Joules/Mol)
                                   92.05955 (Kcal/Mol)
 Warning -- explicit consideration of  17 degrees of freedom as
           vibrations may cause significant error
 Vibrational temperatures:     66.81    70.77    74.46    82.23   193.06
          (Kelvin)            193.56   414.36   417.76   423.03   436.26
                              541.78   543.77   600.92   602.21   868.35
                              870.18   885.16   917.39   959.82  1016.23
                             1769.60  1774.31  1871.50  1876.49  1940.81
                             1943.50  2431.58  2444.78  2496.25  2496.67
                             2555.46  2559.31  3189.75  3203.76  3207.75
                             3360.17  5340.80  5341.02  5342.04  5342.88
                             5495.33  5496.09  5497.10  5497.27

 Zero-point correction=                           0.146706 (Hartree/Particle)
 Thermal correction to Energy=                    0.158097
 Thermal correction to Enthalpy=                  0.159041
 Thermal correction to Gibbs Free Energy=         0.106043
 Sum of electronic and zero-point Energies=           -254.228208
 Sum of electronic and thermal Energies=              -254.216817
 Sum of electronic and thermal Enthalpies=            -254.215873
 Sum of electronic and thermal Free Energies=         -254.268871

                     E (Thermal)             CV                S
                      KCal/Mol        Cal/Mol-Kelvin    Cal/Mol-Kelvin
 Total                   99.207             37.184            111.545
 Electronic               0.000              0.000              0.000
 Translational            0.889              2.981             43.091
 Rotational               0.889              2.981             31.324
 Vibrational             97.430             31.222             37.130
 Vibration     1          0.595              1.979              4.964
 Vibration     2          0.595              1.978              4.850
 Vibration     3          0.596              1.977              4.749
 Vibration     4          0.596              1.975              4.553
 Vibration     5          0.613              1.919              2.885
 Vibration     6          0.613              1.919              2.880
 Vibration     7          0.685              1.696              1.486
 Vibration     8          0.686              1.692              1.472
 Vibration     9          0.689              1.685              1.451
 Vibration    10          0.695              1.668              1.399
 Vibration    11          0.747              1.520              1.053
 Vibration    12          0.748              1.517              1.047
 Vibration    13          0.781              1.432              0.900
 Vibration    14          0.781              1.430              0.897
 Vibration    15          0.962              1.024              0.444
 Vibration    16          0.963              1.022              0.441
 Vibration    17          0.975              1.000              0.424

 Normal termination of Gaussian 16 at Wed May 11 21:45:46 2022.
