 Gaussian 16, Revision A.03,
 Gaussian 16:  ES64L-G16RevA.03 25-Dec-2016

 ------------------------
 #p MP2(full) SDDAll freq
 ------------------------

 file 'w6s2.log' Now we use Def2-QZVPPD, but it was opt at: ---'ZORA-SR
 +SO PBE QZ4P'---
 ----------------------------------------------------------------------
 Symbolic Z-matrix:
 Charge =  2 Multiplicity = 1

                         Standard orientation:
 ---------------------------------------------------------------------
 Center     Atomic      Atomic             Coordinates (Angstroms)
 Number     Number       Type             X           Y           Z
 ---------------------------------------------------------------------
      1         80           0       -0.285582   -0.095894   -0.148237
      2          1           0        6.262089    1.133932    0.002921
      3          8           0        5.511625    1.020901    0.614145
      4          1           0        5.848696    1.168609    1.515901
      5          1           0        1.614144   -0.542963   -1.661558
      6          8           0        1.591539   -0.416642   -0.694880
      7          1           0        3.038312   -0.635029   -0.115133
      8          1           0       -3.356466    3.072628    0.753417
      9          8           0       -3.084646    2.514242    0.004650
     10          1           0       -3.710222    2.700419   -0.716398
     11          1           0       -2.814153   -0.572839    0.516663
     12          8           0       -2.148968    0.240280    0.529136
     13          1           0       -2.590023    1.160447    0.279046
     14          1           0        4.130023   -1.655254    0.590859
     15          8           0        4.023678   -0.838693    0.072106
     16          1           0        4.700034   -0.004361    0.375636
     17          1           0       -4.315432   -1.991888   -0.073958
     18          8           0       -3.636728   -1.785329    0.592193
     19          1           0       -4.012471   -2.040263    1.452729
 ---------------------------------------------------------------------

 SCF Done:  E(RHF) =  -253.444820606     A.U. after   14 cycles
 E2 =    -0.9294076596D+00 EUMP2 =    -0.25437422826551D+03
 E2 =    -0.9294076596D+00 EUMP2 =    -0.25437422826551D+03

 The electronic state is 1-A.
 Alpha  occ. eigenvalues --   -5.40437  -3.39929  -3.39392  -3.39348  -1.70342
 Alpha  occ. eigenvalues --   -1.66326  -1.66156  -1.64709  -1.62332  -1.58705
 Alpha  occ. eigenvalues --   -1.06523  -1.05146  -1.04863  -1.02796  -1.01437
 Alpha  occ. eigenvalues --   -0.99613  -0.99388  -0.99306  -0.96735  -0.96085
 Alpha  occ. eigenvalues --   -0.96084  -0.91188  -0.88999  -0.87075  -0.84104
 Alpha  occ. eigenvalues --   -0.83527  -0.83307  -0.81440  -0.79617  -0.79127
 Alpha  occ. eigenvalues --   -0.78601  -0.76729  -0.76018
 Alpha virt. eigenvalues --   -0.21528  -0.17460  -0.16747  -0.13411  -0.12986
 Alpha virt. eigenvalues --   -0.09320  -0.08715  -0.07682  -0.06215  -0.05097
 Alpha virt. eigenvalues --   -0.04750  -0.04149  -0.03756  -0.02857  -0.01322

 Mulliken charges:
               1
     1  Hg   1.295529
     2  H    0.516408
     3  O   -0.892720
     4  H    0.512082
     5  H    0.495021
     6  O   -1.099225
     7  H    0.648256
     8  H    0.508217
     9  O   -0.929470
    10  H    0.505291
    11  H    0.627457
    12  O   -1.111596
    13  H    0.628106
    14  H    0.531093
    15  O   -0.947032
    16  H    0.628479
    17  H    0.505392
    18  O   -0.929519
    19  H    0.508230
 Sum of Mulliken charges =   2.00000

 Dipole moment (field-independent basis, Debye):
    X=              3.1473    Y=              0.6838    Z=              2.5120  Tot=              4.0845
 Quadrupole moment (field-independent basis, Debye-Ang):
   XX=            113.4607   YY=            -31.0349   ZZ=            -43.6395
   XY=             -1.1081   XZ=             11.7375   YZ=             -1.3945

  Exact polarizability:  78.993  -0.224  52.942  -2.138   0.207  47.236
 Approx polarizability:  42.346   0.673  34.388   0.161   0.117  35.582

 ******    7 imaginary frequencies (negative Signs) ******

                      1                      2                      3
                      A                      A                      A
 Frequencies --   -367.9683              -359.8662              -322.5856
 Red. masses --      1.0160                 1.0218                 1.0275
 Frc consts  --      0.0811                 0.0780                 0.0630
 IR Inten    --     16.8803                34.8954                52.0022

                      4                      5                      6
                      A                      A                      A
 Frequencies --   -177.5132               -93.6762               -75.7231
 Red. masses --      1.3312                 2.8489                 2.6242
 Frc consts  --      0.0247                 0.0147                 0.0089
 IR Inten    --     29.3349                 1.3588                56.8349

                      7                      8                      9
                      A                      A                      A
 Frequencies --    -32.5635                42.2527                51.2620
 Red. masses --      4.6802                 5.5294                 5.3374
 Frc consts  --      0.0029                 0.0058                 0.0083
 IR Inten    --     11.3988                10.5397                 7.4075

                     10                     11                     12
                      A                      A                      A
 Frequencies --     54.6649               102.0852               137.2030
 Red. masses --      5.1813                 5.9168                 4.7211
 Frc consts  --      0.0091                 0.0363                 0.0524
 IR Inten    --      0.2528                 7.0826                26.6505

                     13                     14                     15
                      A                      A                      A
 Frequencies --    229.3631               235.9994               276.2548
 Red. masses --      3.4212                 4.3182                 1.1359
 Frc consts  --      0.1060                 0.1417                 0.0511
 IR Inten    --     46.4294                55.7369                 1.3454

                     16                     17                     18
                      A                      A                      A
 Frequencies --    283.9759               323.5352               372.1183
 Red. masses --      3.9139                 1.1763                 1.7268
 Frc consts  --      0.1860                 0.0725                 0.1409
 IR Inten    --     28.8727                97.0802                36.1867

                     19                     20                     21
                      A                      A                      A
 Frequencies --    411.3335               456.1945               467.0387
 Red. masses --      4.8693                 3.3163                 1.3866
 Frc consts  --      0.4854                 0.4066                 0.1782
 IR Inten    --    101.4646               337.2858               110.7876

                     22                     23                     24
                      A                      A                      A
 Frequencies --    589.2501               592.7550               606.8669
 Red. masses --      1.1308                 1.0985                 2.2192
 Frc consts  --      0.2313                 0.2274                 0.4815
 IR Inten    --    150.2985               708.9442                70.8452

                     25                     26                     27
                      A                      A                      A
 Frequencies --    646.8532               688.4370               705.0655
 Red. masses --      1.9935                 5.9056                 1.2155
 Frc consts  --      0.4915                 1.6491                 0.3560
 IR Inten    --    317.7454                51.3181               287.4368

                     28                     29                     30
                      A                      A                      A
 Frequencies --    971.4342              1176.9327              1199.9911
 Red. masses --      1.0954                 1.0494                 1.0479
 Frc consts  --      0.6091                 0.8564                 0.8890
 IR Inten    --    242.6791                88.4779                66.7045

                     31                     32                     33
                      A                      A                      A
 Frequencies --   1283.5406              1323.4748              1418.7034
 Red. masses --      1.0392                 1.0635                 1.0889
 Frc consts  --      1.0087                 1.0976                 1.2913
 IR Inten    --      1.3142               315.4423              1537.3873

                     34                     35                     36
                      A                      A                      A
 Frequencies --   1524.6826              1710.8025              1736.5550
 Red. masses --      1.0666                 1.0794                 1.0931
 Frc consts  --      1.4608                 1.8614                 1.9422
 IR Inten    --   1100.9892               120.5190                30.1085

                     37                     38                     39
                      A                      A                      A
 Frequencies --   1737.5992              1781.4840              1796.7834
 Red. masses --      1.0748                 1.0602                 1.0544
 Frc consts  --      1.9120                 1.9824                 2.0056
 IR Inten    --    330.5186                21.3483               111.6979

                     40                     41                     42
                      A                      A                      A
 Frequencies --   1856.9881              2410.2047              2438.0626
 Red. masses --      1.1173                 1.1253                 1.0471
 Frc consts  --      2.2701                 3.8515                 3.6673
 IR Inten    --   1342.6734              3159.0226              2891.2128

                     43                     44                     45
                      A                      A                      A
 Frequencies --   2857.1224              3700.4588              3714.9413
 Red. masses --      1.0692                 1.0405                 1.0408
 Frc consts  --      5.1424                 8.3949                 8.4630
 IR Inten    --   2160.4250                71.0833                56.6339

                     46                     47                     48
                      A                      A                      A
 Frequencies --   3718.1359              3720.1104              3764.6097
 Red. masses --      1.0645                 1.0417                 1.0656
 Frc consts  --      8.6703                 8.4939                 8.8978
 IR Inten    --    118.0901                38.9187               189.0467

                     49                     50                     51
                      A                      A                      A
 Frequencies --   3805.7187              3823.3019              3828.5230
 Red. masses --      1.0845                 1.0840                 1.0841
 Frc consts  --      9.2545                 9.3360                 9.3625
 IR Inten    --    192.2713               138.3627               173.3848

 - Thermochemistry -
 -------------------
 Temperature   298.150 Kelvin.  Pressure   1.00000 Atm.
 Atom     1 has atomic number 80 and mass 201.97060

 Molecular mass:   310.03399 amu.
 Principal axes and moments of inertia in atomic units:
                           1         2         3
     Eigenvalues --   912.816605271.414615918.08233
           X            1.00000  -0.00122   0.00086
           Y            0.00123   0.99998  -0.00586
           Z           -0.00085   0.00586   0.99998
 This molecule is an asymmetric top.
 Rotational symmetry number  1.
 Warning -- assumption of classical behavior for rotation
           may cause significant error
 Rotational temperatures (Kelvin)      0.09489     0.01643     0.01464
 Rotational constants (GHZ):           1.97711     0.34236     0.30495
    7 imaginary frequencies ignored.
 Zero-point vibrational energy     386230.3 (Joules/Mol)
                                   92.31127 (Kcal/Mol)
 Warning -- explicit consideration of  17 degrees of freedom as
           vibrations may cause significant error
 Vibrational temperatures:     60.79    73.75    78.65   146.88   197.40
          (Kelvin)            330.00   339.55   397.47   408.58   465.49
                              535.40   591.82   656.36   671.96   847.80
                              852.84   873.15   930.68   990.51  1014.43
                             1397.68  1693.34  1726.52  1846.73  1904.19
                             2041.20  2193.68  2461.46  2498.52  2500.02
                             2563.16  2585.17  2671.79  3467.75  3507.83
                             4110.76  5324.13  5344.97  5349.57  5352.41
                             5416.43  5475.58  5500.88  5508.39

 Zero-point correction=                           0.147107 (Hartree/Particle)
 Thermal correction to Energy=                    0.158264
 Thermal correction to Enthalpy=                  0.159208
 Thermal correction to Gibbs Free Energy=         0.107001
 Sum of electronic and zero-point Energies=           -254.227121
 Sum of electronic and thermal Energies=              -254.215964
 Sum of electronic and thermal Enthalpies=            -254.215020
 Sum of electronic and thermal Free Energies=         -254.267228

                     E (Thermal)             CV                S
                      KCal/Mol        Cal/Mol-Kelvin    Cal/Mol-Kelvin
 Total                   99.312             37.233            109.881
 Electronic               0.000              0.000              0.000
 Translational            0.889              2.981             43.091
 Rotational               0.889              2.981             31.721
 Vibrational             97.535             31.271             35.069
 Vibration     1          0.595              1.980              5.151
 Vibration     2          0.596              1.977              4.768
 Vibration     3          0.596              1.976              4.641
 Vibration     4          0.604              1.947              3.414
 Vibration     5          0.614              1.916              2.843
 Vibration     6          0.652              1.796              1.884
 Vibration     7          0.655              1.786              1.833
 Vibration     8          0.678              1.717              1.557
 Vibration     9          0.682              1.703              1.510
 Vibration    10          0.708              1.628              1.292
 Vibration    11          0.744              1.529              1.071
 Vibration    12          0.775              1.446              0.922
 Vibration    13          0.814              1.347              0.777
 Vibration    14          0.824              1.323              0.746
 Vibration    15          0.947              1.055              0.469
 Vibration    16          0.950              1.047              0.462
 Vibration    17          0.966              1.017              0.438

 Normal termination of Gaussian 16 at Wed May 11 21:40:21 2022.
