 Gaussian 16, Revision A.03,
 Gaussian 16:  ES64L-G16RevA.03 25-Dec-2016

 ------------------------
 #p MP2(full) SDDAll freq
 ------------------------

 file 'w6s4.log' Now we use Def2-QZVPPD, but it was opt at: ---'ZORA-SR
 +SO PBE QZ4P'---
 ----------------------------------------------------------------------
 Symbolic Z-matrix:
 Charge =  2 Multiplicity = 1

                         Standard orientation:
 ---------------------------------------------------------------------
 Center     Atomic      Atomic             Coordinates (Angstroms)
 Number     Number       Type             X           Y           Z
 ---------------------------------------------------------------------
      1         80           0        0.855110   -0.228209    0.115705
      2          1           0       -4.084874   -0.591265   -0.336500
      3          8           0       -3.455473    0.243536   -0.434430
      4          1           0       -3.913808    1.166963   -0.233163
      5          1           0        3.054904   -1.287505   -0.775484
      6          8           0        2.720542   -0.375266   -0.695724
      7          1           0        3.545207    0.338568   -0.472694
      8          1           0       -0.996928   -0.146083    1.722791
      9          8           0       -0.999725   -0.048922    0.751983
     10          1           0       -2.582217    0.131468    0.031769
     11          1           0       -4.734190    3.032574   -0.813052
     12          8           0       -4.462333    2.513452   -0.037198
     13          1           0       -5.090672    2.729086    0.672522
     14          1           0       -5.554852   -1.993153    0.391165
     15          8           0       -4.884990   -1.820932   -0.291877
     16          1           0       -5.234335   -2.191758   -1.120210
     17          1           0        4.870192    1.694307   -1.034749
     18          8           0        4.471490    1.274408   -0.250350
     19          1           0        5.196700    1.083321    0.371997
 ---------------------------------------------------------------------

 SCF Done:  E(RHF) =  -253.443076737     A.U. after   14 cycles
 E2 =    -0.9283635477D+00 EUMP2 =    -0.25437144028445D+03
 E2 =    -0.9283635477D+00 EUMP2 =    -0.25437144028445D+03

 The electronic state is 1-A.
 Alpha  occ. eigenvalues --   -5.41080  -3.40606  -3.40021  -3.40006  -1.69241
 Alpha  occ. eigenvalues --   -1.67485  -1.65918  -1.63267  -1.62488  -1.57992
 Alpha  occ. eigenvalues --   -1.06969  -1.04330  -1.03337  -1.02430  -1.02353
 Alpha  occ. eigenvalues --   -0.99999  -0.98045  -0.97978  -0.97720  -0.96716
 Alpha  occ. eigenvalues --   -0.96713  -0.91099  -0.88208  -0.86707  -0.85575
 Alpha  occ. eigenvalues --   -0.82268  -0.82123  -0.81527  -0.81329  -0.77979
 Alpha  occ. eigenvalues --   -0.77793  -0.75743  -0.75304
 Alpha virt. eigenvalues --   -0.22685  -0.17519  -0.17293  -0.14023  -0.12766
 Alpha virt. eigenvalues --   -0.08581  -0.07490  -0.07419  -0.06002  -0.05418
 Alpha virt. eigenvalues --   -0.04375  -0.03544  -0.03217  -0.02461  -0.01683

 Mulliken charges:
               1
     1  Hg   1.290867
     2  H    0.609923
     3  O   -0.975979
     4  H    0.609675
     5  H    0.534245
     6  O   -1.047666
     7  H    0.636148
     8  H    0.484722
     9  O   -1.058742
    10  H    0.622770
    11  H    0.498195
    12  O   -0.917557
    13  H    0.498181
    14  H    0.498758
    15  O   -0.918920
    16  H    0.498652
    17  H    0.522629
    18  O   -0.905126
    19  H    0.519224
 Sum of Mulliken charges =   2.00000

 Dipole moment (field-independent basis, Debye):
    X=             -3.9139    Y=              1.1129    Z=             -0.0960  Tot=              4.0702
 Quadrupole moment (field-independent basis, Debye-Ang):
   XX=            128.7741   YY=            -29.8090   ZZ=            -47.1474
   XY=              0.2662   XZ=             -3.1845   YZ=             -1.0642

  Exact polarizability:  79.036   2.066  52.321  -5.123   0.145  47.106
 Approx polarizability:  42.817   0.848  34.549  -2.000  -0.366  34.958

 ******    7 imaginary frequencies (negative Signs) ******

                      1                      2                      3
                      A                      A                      A
 Frequencies --   -380.9128              -377.3622              -310.3629
 Red. masses --      1.0118                 1.0213                 1.0316
 Frc consts  --      0.0865                 0.0857                 0.0585
 IR Inten    --      5.1534                48.8236                53.1829

                      4                      5                      6
                      A                      A                      A
 Frequencies --   -236.7074              -105.7278               -89.7172
 Red. masses --      1.0870                 2.7367                 2.4176
 Frc consts  --      0.0359                 0.0180                 0.0115
 IR Inten    --     63.5730                 7.2491                38.5402

                      7                      8                      9
                      A                      A                      A
 Frequencies --    -39.9096                29.1019                38.3401
 Red. masses --      4.4514                 5.2421                 5.7526
 Frc consts  --      0.0042                 0.0026                 0.0050
 IR Inten    --     12.8130                 2.3668                 1.7419

                     10                     11                     12
                      A                      A                      A
 Frequencies --     52.4631                95.5434               109.2343
 Red. masses --      5.6493                 5.2524                 5.6333
 Frc consts  --      0.0092                 0.0282                 0.0396
 IR Inten    --      9.6220                 8.7976                16.9818

                     13                     14                     15
                      A                      A                      A
 Frequencies --    172.5008               205.4113               273.9483
 Red. masses --      7.7907                 3.9337                 1.1372
 Frc consts  --      0.1366                 0.0978                 0.0503
 IR Inten    --     24.9005                35.1023                 1.8002

                     16                     17                     18
                      A                      A                      A
 Frequencies --    302.7367               345.0086               375.4515
 Red. masses --      1.1787                 2.7792                 3.5503
 Frc consts  --      0.0636                 0.1949                 0.2949
 IR Inten    --     95.7568                58.9305               148.0220

                     19                     20                     21
                      A                      A                      A
 Frequencies --    395.3503               408.9313               462.8042
 Red. masses --      2.3731                 4.8064                 1.4297
 Frc consts  --      0.2185                 0.4736                 0.1804
 IR Inten    --     45.4769               166.7526                56.5484

                     22                     23                     24
                      A                      A                      A
 Frequencies --    559.8006               604.6423               618.9160
 Red. masses --      1.1311                 4.7153                 1.1818
 Frc consts  --      0.2088                 1.0157                 0.2667
 IR Inten    --    599.9277               175.3112               346.1705

                     25                     26                     27
                      A                      A                      A
 Frequencies --    666.9189               686.1070               755.5746
 Red. masses --      1.7562                 2.9465                 1.0453
 Frc consts  --      0.4602                 0.8172                 0.3516
 IR Inten    --    348.7473                80.2209                37.6020

                     28                     29                     30
                      A                      A                      A
 Frequencies --    870.8138               982.7443              1069.0938
 Red. masses --      1.0773                 1.0570                 1.0545
 Frc consts  --      0.4813                 0.6014                 0.7101
 IR Inten    --    103.3274                38.6251               123.4942

                     31                     32                     33
                      A                      A                      A
 Frequencies --   1205.7676              1429.0800              1461.2137
 Red. masses --      1.0407                 1.0696                 1.0832
 Frc consts  --      0.8915                 1.2870                 1.3626
 IR Inten    --     95.9829               402.1152               540.3594

                     34                     35                     36
                      A                      A                      A
 Frequencies --   1527.0052              1725.7255              1734.7694
 Red. masses --      1.1189                 1.0880                 1.0973
 Frc consts  --      1.5372                 1.9090                 1.9456
 IR Inten    --   2782.1412               219.7953                21.1725

                     37                     38                     39
                      A                      A                      A
 Frequencies --   1737.0265              1792.5078              1818.0839
 Red. masses --      1.0836                 1.0665                 1.0416
 Frc consts  --      1.9264                 2.0189                 2.0286
 IR Inten    --    820.0538               671.0074                22.4647

                     40                     41                     42
                      A                      A                      A
 Frequencies --   1829.9929              2391.5479              2521.9151
 Red. masses --      1.0491                 1.1315                 1.0492
 Frc consts  --      2.0700                 3.8130                 3.9316
 IR Inten    --     20.0021              3290.1299              1667.3709

                     43                     44                     45
                      A                      A                      A
 Frequencies --   3327.5839              3694.1381              3709.0452
 Red. masses --      1.0672                 1.0405                 1.0662
 Frc consts  --      6.9625                 8.3659                 8.6417
 IR Inten    --   1495.5472                88.5883               105.6494

                     46                     47                     48
                      A                      A                      A
 Frequencies --   3723.9840              3725.1241              3732.7984
 Red. masses --      1.0405                 1.0406                 1.0656
 Frc consts  --      8.5018                 8.5075                 8.7481
 IR Inten    --     34.0261                51.9674               161.3079

                     49                     50                     51
                      A                      A                      A
 Frequencies --   3798.9301              3833.6823              3834.6714
 Red. masses --      1.0844                 1.0842                 1.0843
 Frc consts  --      9.2205                 9.3881                 9.3938
 IR Inten    --    193.9956                67.8504               233.7094

 - Thermochemistry -
 -------------------
 Temperature   298.150 Kelvin.  Pressure   1.00000 Atm.
 Atom     1 has atomic number 80 and mass 201.97060

 Molecular mass:   310.03399 amu.
 Principal axes and moments of inertia in atomic units:
                           1         2         3
     Eigenvalues --   924.600956205.378946897.92816
           X            0.99998   0.00613  -0.00333
           Y           -0.00611   0.99997   0.00520
           Z            0.00336  -0.00518   0.99998
 This molecule is an asymmetric top.
 Rotational symmetry number  1.
 Warning -- assumption of classical behavior for rotation
           may cause significant error
 Rotational temperatures (Kelvin)      0.09368     0.01396     0.01256
 Rotational constants (GHZ):           1.95191     0.29083     0.26164
    7 imaginary frequencies ignored.
 Zero-point vibrational energy     386609.3 (Joules/Mol)
                                   92.40184 (Kcal/Mol)
 Warning -- explicit consideration of  17 degrees of freedom as
           vibrations may cause significant error
 Vibrational temperatures:     41.87    55.16    75.48   137.47   157.16
          (Kelvin)            248.19   295.54   394.15   435.57   496.39
                              540.19   568.82   588.36   665.87   805.43
                              869.95   890.48   959.55   987.15  1087.10
                             1252.91  1413.95  1538.19  1734.83  2056.13
                             2102.36  2197.02  2482.93  2495.95  2499.19
                             2579.02  2615.82  2632.95  3440.90  3628.47
                             4787.65  5315.04  5336.49  5357.98  5359.62
                             5370.66  5465.81  5515.81  5517.24

 Zero-point correction=                           0.147252 (Hartree/Particle)
 Thermal correction to Energy=                    0.158708
 Thermal correction to Enthalpy=                  0.159653
 Thermal correction to Gibbs Free Energy=         0.105947
 Sum of electronic and zero-point Energies=           -254.224189
 Sum of electronic and thermal Energies=              -254.212732
 Sum of electronic and thermal Enthalpies=            -254.211788
 Sum of electronic and thermal Free Energies=         -254.265493

                     E (Thermal)             CV                S
                      KCal/Mol        Cal/Mol-Kelvin    Cal/Mol-Kelvin
 Total                   99.591             37.747            113.032
 Electronic               0.000              0.000              0.000
 Translational            0.889              2.981             43.091
 Rotational               0.889              2.981             32.048
 Vibrational             97.814             31.785             37.893
 Vibration     1          0.593              1.984              5.890
 Vibration     2          0.594              1.982              5.343
 Vibration     3          0.596              1.977              4.722
 Vibration     4          0.603              1.952              3.543
 Vibration     5          0.606              1.942              3.282
 Vibration     6          0.626              1.876              2.408
 Vibration     7          0.640              1.832              2.084
 Vibration     8          0.676              1.721              1.571
 Vibration     9          0.694              1.669              1.402
 Vibration    10          0.723              1.585              1.189
 Vibration    11          0.746              1.522              1.057
 Vibration    12          0.762              1.480              0.980
 Vibration    13          0.773              1.451              0.930
 Vibration    14          0.820              1.333              0.758
 Vibration    15          0.915              1.118              0.524
 Vibration    16          0.963              1.022              0.442
 Vibration    17          0.979              0.992              0.418

 Normal termination of Gaussian 16 at Wed May 11 21:43:56 2022.
