 Gaussian 16, Revision A.03,
 Gaussian 16:  ES64L-G16RevA.03 25-Dec-2016

 ------------------------
 #p MP2(full) SDDAll freq
 ------------------------

 file 'w6s6.log' Now we use Def2-QZVPPD, but it was opt at: ---'ZORA-SR
 +SO PBE QZ4P'---
 ----------------------------------------------------------------------
 Symbolic Z-matrix:
 Charge =  2 Multiplicity = 1

                         Standard orientation:
 ---------------------------------------------------------------------
 Center     Atomic      Atomic             Coordinates (Angstroms)
 Number     Number       Type             X           Y           Z
 ---------------------------------------------------------------------
      1         80           0       -0.352749   -0.206122   -0.097314
      2          8           0       -4.238598    0.302270    0.396770
      3          1           0       -4.724251    0.405231    1.236497
      4          1           0       -4.912184    0.079894   -0.272160
      5          8           0        5.515762    0.705042    0.809000
      6          1           0        5.958916    0.328014    1.590116
      7          1           0        6.195554    1.166825    0.286615
      8          8           0        3.795632   -0.699026   -0.231130
      9          1           0        4.097986   -1.210061   -1.003511
     10          1           0        4.593693   -0.056846    0.191593
     11          8           0       -1.693930    1.966155   -0.108664
     12          1           0       -1.374505    2.873741    0.029905
     13          1           0       -2.665662    2.016775   -0.085588
     14          8           0       -2.117462   -1.051060    0.601518
     15          1           0       -3.025241   -0.529480    0.476723
     16          1           0       -2.243495   -1.996114    0.395626
     17          8           0        1.490722    0.355833   -0.631461
     18          1           0        1.418982    1.031377   -1.329564
     19          1           0        2.883107   -0.253336   -0.419384
 ---------------------------------------------------------------------

 SCF Done:  E(RHF) =  -253.444951763     A.U. after   14 cycles
 E2 =    -0.9249754205D+00 EUMP2 =    -0.25436992718338D+03
 E2 =    -0.9249754205D+00 EUMP2 =    -0.25436992718338D+03

 The electronic state is 1-A.
 Alpha  occ. eigenvalues --   -5.39402  -3.39061  -3.38607  -3.38402  -1.70262
 Alpha  occ. eigenvalues --   -1.69012  -1.66263  -1.65903  -1.63562  -1.58321
 Alpha  occ. eigenvalues --   -1.06397  -1.06006  -1.04513  -1.02924  -1.01634
 Alpha  occ. eigenvalues --   -1.01007  -0.98978  -0.98468  -0.96751  -0.96097
 Alpha  occ. eigenvalues --   -0.95330  -0.91254  -0.88475  -0.87337  -0.86778
 Alpha  occ. eigenvalues --   -0.85438  -0.84174  -0.82461  -0.81227  -0.80697
 Alpha  occ. eigenvalues --   -0.78569  -0.75705  -0.75272
 Alpha virt. eigenvalues --   -0.22529  -0.16549  -0.15417  -0.14334  -0.13187
 Alpha virt. eigenvalues --   -0.09801  -0.08888  -0.07706  -0.07091  -0.06161
 Alpha virt. eigenvalues --   -0.05213  -0.04015  -0.02709  -0.02162  -0.01332

 Mulliken charges:
               1
     1  Hg   1.355499
     2  O   -0.938587
     3  H    0.513011
     4  H    0.510557
     5  O   -0.897242
     6  H    0.513134
     7  H    0.511411
     8  O   -0.930493
     9  H    0.522379
    10  H    0.621064
    11  O   -0.964860
    12  H    0.509709
    13  H    0.513114
    14  O   -1.019357
    15  H    0.618736
    16  H    0.534128
    17  O   -1.109782
    18  H    0.493296
    19  H    0.644281
 Sum of Mulliken charges =   2.00000

 Dipole moment (field-independent basis, Debye):
    X=              3.5005    Y=              0.4410    Z=             -0.7812  Tot=              3.6136
 Quadrupole moment (field-independent basis, Debye-Ang):
   XX=            113.0418   YY=            -36.6737   ZZ=            -48.6235
   XY=              1.9042   XZ=             -3.4499   YZ=              1.7115

  Exact polarizability:  79.952   2.222  51.267  -1.899  -0.066  45.105
 Approx polarizability:  43.669   1.379  34.340   0.141  -0.100  32.344

 ******    7 imaginary frequencies (negative Signs) ******

                      1                      2                      3
                      A                      A                      A
 Frequencies --   -415.0552              -329.9611              -208.1796
 Red. masses --      1.0181                 1.0262                 1.0747
 Frc consts  --      0.1033                 0.0658                 0.0274
 IR Inten    --     11.4756                49.0257                11.4272

                      4                      5                      6
                      A                      A                      A
 Frequencies --   -168.8081              -104.6496               -67.4497
 Red. masses --      1.3389                 2.6870                 3.2844
 Frc consts  --      0.0225                 0.0173                 0.0088
 IR Inten    --     35.1085                 3.0024                12.7489

                      7                      8                      9
                      A                      A                      A
 Frequencies --     -3.5406                44.4388                55.0042
 Red. masses --      3.4986                 4.8050                 4.4077
 Frc consts  --      0.0000                 0.0056                 0.0079
 IR Inten    --      3.5213                10.3529                12.4865

                     10                     11                     12
                      A                      A                      A
 Frequencies --     71.1379                79.3643               126.7865
 Red. masses --      4.8169                 5.4877                 6.8873
 Frc consts  --      0.0144                 0.0204                 0.0652
 IR Inten    --     16.1440                16.4085                 2.1415

                     13                     14                     15
                      A                      A                      A
 Frequencies --    186.8178               203.9837               255.6428
 Red. masses --      5.3098                 3.6752                 1.2304
 Frc consts  --      0.1092                 0.0901                 0.0474
 IR Inten    --      6.3976                56.1021                48.7598

                     16                     17                     18
                      A                      A                      A
 Frequencies --    288.6362               323.9506               335.6280
 Red. masses --      3.0769                 1.1626                 2.6890
 Frc consts  --      0.1510                 0.0719                 0.1785
 IR Inten    --    153.4382                49.9632                45.7328

                     19                     20                     21
                      A                      A                      A
 Frequencies --    374.8333               447.8723               471.9888
 Red. masses --      1.5930                 3.7154                 1.4080
 Frc consts  --      0.1319                 0.4391                 0.1848
 IR Inten    --    132.3424               325.7778               149.3515

                     22                     23                     24
                      A                      A                      A
 Frequencies --    487.2974               549.5765               574.5706
 Red. masses --      1.3725                 4.2592                 1.1973
 Frc consts  --      0.1920                 0.7579                 0.2329
 IR Inten    --     59.8637                54.6829               375.5833

                     25                     26                     27
                      A                      A                      A
 Frequencies --    588.0989               645.2739               692.9171
 Red. masses --      1.0609                 8.1843                 1.1750
 Frc consts  --      0.2162                 2.0078                 0.3324
 IR Inten    --    204.9786               128.1654               269.7097

                     28                     29                     30
                      A                      A                      A
 Frequencies --    702.0219               943.2248               982.9604
 Red. masses --      1.1515                 1.0850                 1.0924
 Frc consts  --      0.3344                 0.5688                 0.6219
 IR Inten    --    410.7835                92.2078                42.8372

                     31                     32                     33
                      A                      A                      A
 Frequencies --   1208.0222              1280.8285              1475.1783
 Red. masses --      1.0536                 1.0542                 1.0760
 Frc consts  --      0.9059                 1.0189                 1.3796
 IR Inten    --    112.6314               218.9387               853.9375

                     34                     35                     36
                      A                      A                      A
 Frequencies --   1583.1238              1718.5841              1732.5453
 Red. masses --      1.0765                 1.0877                 1.0896
 Frc consts  --      1.5896                 1.8927                 1.9270
 IR Inten    --   1467.8025               137.2011               189.3372

                     37                     38                     39
                      A                      A                      A
 Frequencies --   1744.1272              1788.9789              1798.2304
 Red. masses --      1.0684                 1.0664                 1.0509
 Frc consts  --      1.9149                 2.0109                 2.0022
 IR Inten    --    452.6472                53.1405                69.9134

                     40                     41                     42
                      A                      A                      A
 Frequencies --   1860.0582              2377.7046              2697.7898
 Red. masses --      1.1236                 1.0766                 1.0704
 Frc consts  --      2.2905                 3.5861                 4.5901
 IR Inten    --   1727.2968              2811.3959              2308.8702

                     43                     44                     45
                      A                      A                      A
 Frequencies --   3688.6078              3704.1391              3713.9429
 Red. masses --      1.0407                 1.0405                 1.0406
 Frc consts  --      8.3424                 8.4115                 8.4565
 IR Inten    --     77.3032                67.2813                33.6699

                     46                     47                     48
                      A                      A                      A
 Frequencies --   3728.6817              3733.2490              3748.9862
 Red. masses --      1.0655                 1.0662                 1.0645
 Frc consts  --      8.7276                 8.7554                 8.8151
 IR Inten    --    195.4026                67.1808               174.3031

                     49                     50                     51
                      A                      A                      A
 Frequencies --   3791.4797              3810.3925              3827.9237
 Red. masses --      1.0833                 1.0845                 1.0837
 Frc consts  --      9.1752                 9.2776                 9.3560
 IR Inten    --    165.7571               189.1609               153.3496

 - Thermochemistry -
 -------------------
 Temperature   298.150 Kelvin.  Pressure   1.00000 Atm.
 Atom     1 has atomic number 80 and mass 201.97060

 Molecular mass:   310.03399 amu.
 Principal axes and moments of inertia in atomic units:
                           1         2         3
     Eigenvalues --   583.807365035.952455365.03473
           X            0.99999  -0.00247  -0.00208
           Y            0.00245   0.99998  -0.00526
           Z            0.00209   0.00525   0.99998
 This molecule is an asymmetric top.
 Rotational symmetry number  1.
 Warning -- assumption of classical behavior for rotation
           may cause significant error
 Rotational temperatures (Kelvin)      0.14836     0.01720     0.01614
 Rotational constants (GHZ):           3.09133     0.35837     0.33639
    7 imaginary frequencies ignored.
 Zero-point vibrational energy     385464.3 (Joules/Mol)
                                   92.12818 (Kcal/Mol)
 Warning -- explicit consideration of  18 degrees of freedom as
           vibrations may cause significant error
 Vibrational temperatures:     63.94    79.14   102.35   114.19   182.42
          (Kelvin)            268.79   293.49   367.81   415.28   466.09
                              482.89   539.30   644.39   679.09   701.11
                              790.72   826.68   846.14   928.41   996.95
                             1010.05  1357.09  1414.26  1738.07  1842.83
                             2122.45  2277.76  2472.66  2492.75  2509.41
                             2573.94  2587.25  2676.21  3420.99  3881.52
                             5307.08  5329.43  5343.54  5364.74  5371.31
                             5393.95  5455.09  5482.30  5507.53

 Zero-point correction=                           0.146816 (Hartree/Particle)
 Thermal correction to Energy=                    0.158495
 Thermal correction to Enthalpy=                  0.159439
 Thermal correction to Gibbs Free Energy=         0.106650
 Sum of electronic and zero-point Energies=           -254.223112
 Sum of electronic and thermal Energies=              -254.211432
 Sum of electronic and thermal Enthalpies=            -254.210488
 Sum of electronic and thermal Free Energies=         -254.263277

                     E (Thermal)             CV                S
                      KCal/Mol        Cal/Mol-Kelvin    Cal/Mol-Kelvin
 Total                   99.457             39.024            111.103
 Electronic               0.000              0.000              0.000
 Translational            0.889              2.981             43.091
 Rotational               0.889              2.981             31.134
 Vibrational             97.679             33.062             36.878
 Vibration     1          0.595              1.980              5.051
 Vibration     2          0.596              1.976              4.629
 Vibration     3          0.598              1.968              4.122
 Vibration     4          0.600              1.963              3.907
 Vibration     5          0.611              1.926              2.994
 Vibration     6          0.632              1.858              2.259
 Vibration     7          0.640              1.834              2.097
 Vibration     8          0.666              1.753              1.691
 Vibration     9          0.685              1.695              1.482
 Vibration    10          0.709              1.628              1.290
 Vibration    11          0.717              1.604              1.233
 Vibration    12          0.746              1.524              1.060
 Vibration    13          0.807              1.366              0.802
 Vibration    14          0.829              1.312              0.732
 Vibration    15          0.843              1.278              0.691
 Vibration    16          0.905              1.141              0.545
 Vibration    17          0.931              1.086              0.496
 Vibration    18          0.945              1.057              0.471

 Normal termination of Gaussian 16 at Wed May 11 21:47:30 2022.
