 Gaussian 16, Revision A.03,
 Gaussian 16:  ES64L-G16RevA.03 25-Dec-2016

 ------------------------
 #p MP2(full) SDDAll freq
 ------------------------

 file 'w6s7.log' Now we use Def2-QZVPPD, but it was opt at: ---'ZORA-SR
 +SO PBE QZ4P'---
 ----------------------------------------------------------------------
 Symbolic Z-matrix:
 Charge =  2 Multiplicity = 1

                         Standard orientation:
 ---------------------------------------------------------------------
 Center     Atomic      Atomic             Coordinates (Angstroms)
 Number     Number       Type             X           Y           Z
 ---------------------------------------------------------------------
      1         80           0       -0.390777   -0.301781   -0.059202
      2          8           0        3.597860    1.001255   -0.148471
      3          1           0        4.467827    0.381306    0.128045
      4          1           0        3.827381    1.685088   -0.803556
      5          8           0        5.484674   -0.396677    0.570968
      6          1           0        6.188333   -0.677246   -0.040759
      7          1           0        5.916056   -0.143024    1.406619
      8          8           0        1.424815   -0.126294   -0.882340
      9          1           0        2.733095    0.502822   -0.432047
     10          1           0        1.549119   -0.864219   -1.506512
     11          8           0       -4.266653    0.323040   -0.179430
     12          1           0       -4.888326   -0.247680   -0.665620
     13          1           0       -4.806588    0.899360    0.390589
     14          8           0       -1.044946    2.176099    0.294377
     15          1           0       -0.997972    2.866799   -0.387993
     16          1           0       -1.036928    2.651982    1.141995
     17          8           0       -2.220228   -0.620010    0.842008
     18          1           0       -3.130531   -0.234602    0.389508
     19          1           0       -2.363516   -1.537419    1.138992
 ---------------------------------------------------------------------

 SCF Done:  E(RHF) =  -253.439267065     A.U. after   14 cycles
 E2 =    -0.9270242234D+00 EUMP2 =    -0.25436629128834D+03
 E2 =    -0.9270242234D+00 EUMP2 =    -0.25436629128834D+03

 The electronic state is 1-A.
 Alpha  occ. eigenvalues --   -5.39464  -3.39059  -3.38654  -3.38434  -1.70541
 Alpha  occ. eigenvalues --   -1.67970  -1.66150  -1.64961  -1.63238  -1.58760
 Alpha  occ. eigenvalues --   -1.06317  -1.05387  -1.04584  -1.02837  -1.01245
 Alpha  occ. eigenvalues --   -1.00921  -0.98644  -0.97960  -0.96407  -0.95918
 Alpha  occ. eigenvalues --   -0.95184  -0.90741  -0.89335  -0.87800  -0.86150
 Alpha  occ. eigenvalues --   -0.84519  -0.83522  -0.81282  -0.80898  -0.79799
 Alpha  occ. eigenvalues --   -0.78321  -0.76118  -0.75727
 Alpha virt. eigenvalues --   -0.22555  -0.17061  -0.15514  -0.14037  -0.13005
 Alpha virt. eigenvalues --   -0.09564  -0.08444  -0.07685  -0.07296  -0.05886
 Alpha virt. eigenvalues --   -0.04294  -0.03865  -0.03491  -0.03080  -0.01037

 Mulliken charges:
               1
     1  Hg   1.340048
     2  O   -0.925669
     3  H    0.618949
     4  H    0.522207
     5  O   -0.901375
     6  H    0.512238
     7  H    0.513218
     8  O   -1.105251
     9  H    0.640850
    10  H    0.490385
    11  O   -0.909177
    12  H    0.509779
    13  H    0.514705
    14  O   -0.947842
    15  H    0.499547
    16  H    0.499458
    17  O   -1.027660
    18  H    0.629903
    19  H    0.525687
 Sum of Mulliken charges =   2.00000

 Dipole moment (field-independent basis, Debye):
    X=              4.7137    Y=              1.4140    Z=             -0.0347  Tot=              4.9213
 Quadrupole moment (field-independent basis, Debye-Ang):
   XX=            103.6453   YY=            -32.4274   ZZ=            -47.5841
   XY=              4.7970   XZ=             -2.7363   YZ=              1.1772

  Exact polarizability:  78.496  -0.724  51.787  -2.857  -0.476  47.488
 Approx polarizability:  41.613  -0.601  34.999  -0.377   0.455  34.542

 ******    7 imaginary frequencies (negative Signs) ******

                      1                      2                      3
                      A                      A                      A
 Frequencies --   -440.5682              -342.0785              -330.6413
 Red. masses --      1.0123                 1.0306                 1.0296
 Frc consts  --      0.1158                 0.0711                 0.0663
 IR Inten    --      4.5752                53.5676                37.9334

                      4                      5                      6
                      A                      A                      A
 Frequencies --   -157.3257               -96.3723               -89.6680
 Red. masses --      1.5991                 2.6935                 2.8100
 Frc consts  --      0.0233                 0.0147                 0.0133
 IR Inten    --     31.6906                 6.5243                12.8580

                      7                      8                      9
                      A                      A                      A
 Frequencies --    -16.0252                33.8316                47.4905
 Red. masses --      4.9156                 5.5661                 5.5809
 Frc consts  --      0.0007                 0.0038                 0.0074
 IR Inten    --     12.0934                19.8264                 2.8530

                     10                     11                     12
                      A                      A                      A
 Frequencies --     70.1926               110.5658               114.1158
 Red. masses --      5.2843                 5.6948                 5.7266
 Frc consts  --      0.0153                 0.0410                 0.0439
 IR Inten    --      1.7966                 6.6381                 9.3665

                     13                     14                     15
                      A                      A                      A
 Frequencies --    173.9854               242.5368               284.4498
 Red. masses --      6.0614                 2.5672                 1.2063
 Frc consts  --      0.1081                 0.0890                 0.0575
 IR Inten    --      2.8334               125.1450               138.3471

                     16                     17                     18
                      A                      A                      A
 Frequencies --    303.3244               307.9019               323.0824
 Red. masses --      1.2859                 2.4309                 1.1410
 Frc consts  --      0.0697                 0.1358                 0.0702
 IR Inten    --     21.4833                92.3792                82.9881

                     19                     20                     21
                      A                      A                      A
 Frequencies --    362.2357               438.5079               484.6278
 Red. masses --      4.4212                 3.6948                 1.3646
 Frc consts  --      0.3418                 0.4186                 0.1888
 IR Inten    --     50.0567               393.4632                60.3847

                     22                     23                     24
                      A                      A                      A
 Frequencies --    489.2354               520.9660               574.4858
 Red. masses --      1.3654                 1.1771                 4.7290
 Frc consts  --      0.1925                 0.1882                 0.9196
 IR Inten    --     56.2467               307.0689               182.8839

                     25                     26                     27
                      A                      A                      A
 Frequencies --    590.2461               642.3788               658.6714
 Red. masses --      1.0684                 2.5299                 1.8019
 Frc consts  --      0.2193                 0.6151                 0.4606
 IR Inten    --    144.3098               284.4084               264.6389

                     28                     29                     30
                      A                      A                      A
 Frequencies --    691.5343               956.4857               989.1243
 Red. masses --      1.1778                 1.0714                 1.0885
 Frc consts  --      0.3319                 0.5775                 0.6275
 IR Inten    --    339.5010                37.5877                41.4689

                     31                     32                     33
                      A                      A                      A
 Frequencies --   1231.8771              1371.1232              1482.0139
 Red. masses --      1.0503                 1.0562                 1.0740
 Frc consts  --      0.9390                 1.1699                 1.3898
 IR Inten    --    106.0283               189.9415               595.3182

                     34                     35                     36
                      A                      A                      A
 Frequencies --   1617.0429              1710.3009              1721.9017
 Red. masses --      1.0802                 1.0950                 1.0884
 Frc consts  --      1.6642                 1.8872                 1.9013
 IR Inten    --   1456.6443               108.3332               100.0717

                     37                     38                     39
                      A                      A                      A
 Frequencies --   1750.8535              1770.2443              1800.0891
 Red. masses --      1.0596                 1.0773                 1.0494
 Frc consts  --      1.9137                 1.9890                 2.0035
 IR Inten    --    473.2547               310.3630                88.6135

                     40                     41                     42
                      A                      A                      A
 Frequencies --   1860.3309              1928.4657              2633.3157
 Red. masses --      1.1341                 1.0798                 1.0696
 Frc consts  --      2.3126                 2.3660                 4.3702
 IR Inten    --   3042.8439              2458.5474              2412.0747

                     43                     44                     45
                      A                      A                      A
 Frequencies --   3703.6500              3705.0055              3726.5379
 Red. masses --      1.0405                 1.0406                 1.0423
 Frc consts  --      8.4091                 8.4158                 8.5285
 IR Inten    --     73.7760                59.8081                46.1535

                     46                     47                     48
                      A                      A                      A
 Frequencies --   3726.7992              3732.1888              3747.2398
 Red. masses --      1.0637                 1.0650                 1.0642
 Frc consts  --      8.7044                 8.7407                 8.8047
 IR Inten    --     78.0155               150.4939               170.8733

                     49                     50                     51
                      A                      A                      A
 Frequencies --   3809.7986              3810.6799              3837.0710
 Red. masses --      1.0840                 1.0845                 1.0840
 Frc consts  --      9.2703                 9.2785                 9.4031
 IR Inten    --    156.8998               198.3438               124.5997

 - Thermochemistry -
 -------------------
 Temperature   298.150 Kelvin.  Pressure   1.00000 Atm.
 Atom     1 has atomic number 80 and mass 201.97060

 Molecular mass:   310.03399 amu.
 Principal axes and moments of inertia in atomic units:
                           1         2         3
     Eigenvalues --   655.243274861.818695227.12510
           X            0.99999  -0.00406  -0.00154
           Y            0.00405   0.99999  -0.00354
           Z            0.00156   0.00353   0.99999
 This molecule is an asymmetric top.
 Rotational symmetry number  1.
 Warning -- assumption of classical behavior for rotation
           may cause significant error
 Rotational temperatures (Kelvin)      0.13219     0.01782     0.01657
 Rotational constants (GHZ):           2.75431     0.37121     0.34526
    7 imaginary frequencies ignored.
 Zero-point vibrational energy     383322.4 (Joules/Mol)
                                   91.61626 (Kcal/Mol)
 Warning -- explicit consideration of  18 degrees of freedom as
           vibrations may cause significant error
 Vibrational temperatures:     48.68    68.33   100.99   159.08   164.19
          (Kelvin)            250.33   348.96   409.26   436.42   443.00
                              464.84   521.18   630.92   697.27   703.90
                              749.55   826.56   849.23   924.24   947.68
                              994.96  1376.17  1423.13  1772.40  1972.74
                             2132.29  2326.56  2460.74  2477.43  2519.09
                             2546.99  2589.93  2676.60  2774.63  3788.75
                             5328.73  5330.68  5361.66  5362.03  5369.79
                             5391.44  5481.45  5482.72  5520.69

 Zero-point correction=                           0.146000 (Hartree/Particle)
 Thermal correction to Energy=                    0.157663
 Thermal correction to Enthalpy=                  0.158607
 Thermal correction to Gibbs Free Energy=         0.105673
 Sum of electronic and zero-point Energies=           -254.220291
 Sum of electronic and thermal Energies=              -254.208628
 Sum of electronic and thermal Enthalpies=            -254.207684
 Sum of electronic and thermal Free Energies=         -254.260618

                     E (Thermal)             CV                S
                      KCal/Mol        Cal/Mol-Kelvin    Cal/Mol-Kelvin
 Total                   98.935             39.051            111.408
 Electronic               0.000              0.000              0.000
 Translational            0.889              2.981             43.091
 Rotational               0.889              2.981             31.188
 Vibrational             97.157             33.089             37.129
 Vibration     1          0.594              1.983              5.591
 Vibration     2          0.595              1.979              4.919
 Vibration     3          0.598              1.968              4.148
 Vibration     4          0.606              1.941              3.259
 Vibration     5          0.607              1.938              3.198
 Vibration     6          0.627              1.874              2.392
 Vibration     7          0.659              1.775              1.784
 Vibration     8          0.683              1.703              1.507
 Vibration     9          0.695              1.667              1.398
 Vibration    10          0.698              1.659              1.374
 Vibration    11          0.708              1.629              1.294
 Vibration    12          0.736              1.550              1.112
 Vibration    13          0.799              1.386              0.831
 Vibration    14          0.841              1.284              0.698
 Vibration    15          0.845              1.274              0.686
 Vibration    16          0.876              1.204              0.608
 Vibration    17          0.931              1.086              0.496
 Vibration    18          0.948              1.053              0.467

 Normal termination of Gaussian 16 at Wed May 11 21:49:19 2022.
