 Gaussian 16, Revision A.03,
 Gaussian 16:  ES64L-G16RevA.03 25-Dec-2016

 ------------------------
 #p MP2(full) SDDAll freq
 ------------------------

 file 'w6s8' Now we use Def2-QZVPPD, but it was opt at: ---'ZORA-SR+SO
 PBE QZ4P'---
 ----------------------------------------------------------------------
 Symbolic Z-matrix:
 Charge =  2 Multiplicity = 1

                         Standard orientation:
 ---------------------------------------------------------------------
 Center     Atomic      Atomic             Coordinates (Angstroms)
 Number     Number       Type             X           Y           Z
 ---------------------------------------------------------------------
      1         80           0       -0.549047   -0.049978   -0.150121
      2          8           0        1.305813    3.084294    0.058047
      3          1           0        1.757841    3.535755   -0.674337
      4          1           0        1.345499    3.698981    0.809717
      5          8           0       -2.411960   -0.733777   -0.632849
      6          1           0       -3.304785   -0.583267    0.004692
      7          1           0       -2.639269   -0.671798   -1.578678
      8          8           0        1.270050    0.489769    0.351858
      9          1           0        1.351832    1.498608    0.252446
     10          1           0        2.424150   -0.334466    0.709638
     11          8           0       -4.343346   -0.477705    0.852838
     12          1           0       -5.037049    0.183018    0.676248
     13          1           0       -4.794189   -1.305444    1.101527
     14          8           0        3.206317   -0.977692    0.998631
     15          1           0        4.103155   -0.986960    0.384177
     16          1           0        3.415921   -0.873359    1.943903
     17          8           0        5.198668   -1.088617   -0.455551
     18          1           0        5.995214   -0.552351   -0.300614
     19          1           0        5.501152   -1.980674   -0.702818
 ---------------------------------------------------------------------

 SCF Done:  E(RHF) =  -253.437126643     A.U. after   14 cycles
 E2 =    -0.9300780125D+00 EUMP2 =    -0.25436720465516D+03
 E2 =    -0.9300780125D+00 EUMP2 =    -0.25436720465516D+03

 The electronic state is 1-A.
 Alpha  occ. eigenvalues --   -5.40629  -3.40133  -3.39577  -3.39553  -1.69560
 Alpha  occ. eigenvalues --   -1.69049  -1.65804  -1.65086  -1.62738  -1.56340
 Alpha  occ. eigenvalues --   -1.06815  -1.05589  -1.04235  -1.03324  -1.02178
 Alpha  occ. eigenvalues --   -1.00196  -0.99443  -0.97478  -0.97240  -0.96273
 Alpha  occ. eigenvalues --   -0.96268  -0.91671  -0.90191  -0.87043  -0.85474
 Alpha  occ. eigenvalues --   -0.83696  -0.82944  -0.81182  -0.80740  -0.79952
 Alpha  occ. eigenvalues --   -0.76894  -0.75202  -0.74628
 Alpha virt. eigenvalues --   -0.22122  -0.17398  -0.16991  -0.13721  -0.13283
 Alpha virt. eigenvalues --   -0.09334  -0.08501  -0.07277  -0.07001  -0.05682
 Alpha virt. eigenvalues --   -0.04854  -0.04390  -0.03735  -0.03003  -0.02178

 Mulliken charges:
               1
     1  Hg   1.308712
     2  O   -0.940254
     3  H    0.494245
     4  H    0.494926
     5  O   -1.051393
     6  H    0.636635
     7  H    0.535219
     8  O   -1.179911
     9  H    0.603315
    10  H    0.650168
    11  O   -0.906208
    12  H    0.518155
    13  H    0.520935
    14  O   -0.939961
    15  H    0.621201
    16  H    0.522581
    17  O   -0.904380
    18  H    0.506941
    19  H    0.509073
 Sum of Mulliken charges =   2.00000

 Dipole moment (field-independent basis, Debye):
    X=              3.5110    Y=              0.6213    Z=              0.9606  Tot=              3.6927
 Quadrupole moment (field-independent basis, Debye-Ang):
   XX=             98.9696   YY=            -25.8263   ZZ=            -44.9561
   XY=              0.0681   XZ=              5.2825   YZ=             -0.0281

  Exact polarizability:  80.103   3.677  52.528  -0.316   0.807  48.188
 Approx polarizability:  43.305   1.114  35.610  -1.012   0.376  34.448

 ******    6 imaginary frequencies (negative Signs) ******

                      1                      2                      3
                      A                      A                      A
 Frequencies --   -398.1036              -348.1693              -317.3463
 Red. masses --      1.0129                 1.0273                 1.0325
 Frc consts  --      0.0946                 0.0734                 0.0613
 IR Inten    --     11.0233                44.7530                46.4572

                      4                      5                      6
                      A                      A                      A
 Frequencies --   -105.1372               -95.7680               -71.5374
 Red. masses --      2.3428                 2.5890                 2.9187
 Frc consts  --      0.0153                 0.0140                 0.0088
 IR Inten    --      5.3369                 4.9569                44.2949

                      7                      8                      9
                      A                      A                      A
 Frequencies --     20.3254                40.1982                41.6002
 Red. masses --      5.1016                 5.6025                 5.7242
 Frc consts  --      0.0012                 0.0053                 0.0058
 IR Inten    --     12.5091                 8.1482                 1.2973

                     10                     11                     12
                      A                      A                      A
 Frequencies --     77.1125               109.5995               131.1760
 Red. masses --      4.6651                 5.5784                 4.3238
 Frc consts  --      0.0163                 0.0395                 0.0438
 IR Inten    --     15.6512                 6.3741                 8.5033

                     13                     14                     15
                      A                      A                      A
 Frequencies --    220.3133               227.6348               295.5544
 Red. masses --      2.3440                 3.7988                 1.1835
 Frc consts  --      0.0670                 0.1160                 0.0609
 IR Inten    --     28.4450                49.0177                69.9450

                     16                     17                     18
                      A                      A                      A
 Frequencies --    309.3392               364.6468               408.1081
 Red. masses --      1.1357                 3.6549                 3.7051
 Frc consts  --      0.0640                 0.2863                 0.3636
 IR Inten    --    133.1550               246.8864                42.4021

                     19                     20                     21
                      A                      A                      A
 Frequencies --    428.4703               457.7117               492.1062
 Red. masses --      3.8290                 1.4597                 1.4672
 Frc consts  --      0.4142                 0.1802                 0.2093
 IR Inten    --    248.7602                68.3999                82.1251

                     22                     23                     24
                      A                      A                      A
 Frequencies --    572.0015               588.0513               606.5856
 Red. masses --      1.1682                 1.0662                 4.0146
 Frc consts  --      0.2252                 0.2172                 0.8703
 IR Inten    --    458.9546               222.7608               150.0246

                     25                     26                     27
                      A                      A                      A
 Frequencies --    667.1366               681.4873               696.4603
 Red. masses --      1.3129                 1.1612                 7.2417
 Frc consts  --      0.3443                 0.3177                 2.0696
 IR Inten    --    314.2010               316.5919               102.6616

                     28                     29                     30
                      A                      A                      A
 Frequencies --    980.8181              1063.1620              1160.2362
 Red. masses --      1.0602                 1.0542                 1.0541
 Frc consts  --      0.6009                 0.7020                 0.8360
 IR Inten    --     38.4319               158.8686                66.0166

                     31                     32                     33
                      A                      A                      A
 Frequencies --   1368.4598              1424.6754              1485.8937
 Red. masses --      1.0640                 1.0564                 1.0731
 Frc consts  --      1.1740                 1.2634                 1.3960
 IR Inten    --     85.7911               219.5088               302.7198

                     34                     35                     36
                      A                      A                      A
 Frequencies --   1575.8912              1693.1126              1734.2641
 Red. masses --      1.1246                 1.0782                 1.0890
 Frc consts  --      1.6455                 1.8211                 1.9298
 IR Inten    --   2981.0872               218.9107               109.9624

                     37                     38                     39
                      A                      A                      A
 Frequencies --   1746.0966              1761.1515              1796.8700
 Red. masses --      1.0852                 1.0461                 1.0603
 Frc consts  --      1.9494                 1.9116                 2.0171
 IR Inten    --   1123.0802               124.4922              1111.7749

                     40                     41                     42
                      A                      A                      A
 Frequencies --   1801.2658              1952.0383              2389.0994
 Red. masses --      1.0479                 1.1583                 1.0683
 Frc consts  --      2.0032                 2.6003                 3.5927
 IR Inten    --    109.0888              3385.1295              2406.6486

                     43                     44                     45
                      A                      A                      A
 Frequencies --   2976.5942              3697.5976              3711.7123
 Red. masses --      1.0716                 1.0405                 1.0407
 Frc consts  --      5.5937                 8.3817                 8.4473
 IR Inten    --   1630.5966                82.9631                60.1389

                     46                     47                     48
                      A                      A                      A
 Frequencies --   3729.1954              3735.0946              3754.5547
 Red. masses --      1.0404                 1.0656                 1.0641
 Frc consts  --      8.5248                 8.7587                 8.8383
 IR Inten    --     31.1796               171.9464               161.1819

                     49                     50                     51
                      A                      A                      A
 Frequencies --   3802.9315              3819.6678              3840.0442
 Red. masses --      1.0843                 1.0842                 1.0839
 Frc consts  --      9.2395                 9.3202                 9.4174
 IR Inten    --    190.2389               175.4351               128.4641

 - Thermochemistry -
 -------------------
 Temperature   298.150 Kelvin.  Pressure   1.00000 Atm.
 Atom     1 has atomic number 80 and mass 201.97060

 Molecular mass:   310.03399 amu.
 Principal axes and moments of inertia in atomic units:
                           1         2         3
     Eigenvalues --  1051.154324752.791025417.79576
           X            1.00000  -0.00054  -0.00207
           Y            0.00053   1.00000  -0.00124
           Z            0.00207   0.00124   1.00000
 This molecule is an asymmetric top.
 Rotational symmetry number  1.
 Warning -- assumption of classical behavior for rotation
           may cause significant error
 Rotational temperatures (Kelvin)      0.08240     0.01822     0.01599
 Rotational constants (GHZ):           1.71691     0.37972     0.33311
    6 imaginary frequencies ignored.
 Zero-point vibrational energy     385413.1 (Joules/Mol)
                                   92.11595 (Kcal/Mol)
 Warning -- explicit consideration of  18 degrees of freedom as
           vibrations may cause significant error
 Vibrational temperatures:     29.24    57.84    59.85   110.95   157.69
          (Kelvin)            188.73   316.98   327.52   425.24   445.07
                              524.65   587.18   616.47   658.54   708.03
                              822.98   846.07   872.74   959.86   980.51
                             1002.05  1411.18  1529.65  1669.32  1968.91
                             2049.79  2137.87  2267.36  2436.01  2495.22
                             2512.24  2533.90  2585.30  2591.62  2808.55
                             3437.38  4282.66  5320.02  5340.33  5365.48
                             5373.97  5401.97  5471.57  5495.65  5524.97

 Zero-point correction=                           0.146796 (Hartree/Particle)
 Thermal correction to Energy=                    0.158691
 Thermal correction to Enthalpy=                  0.159635
 Thermal correction to Gibbs Free Energy=         0.104673
 Sum of electronic and zero-point Energies=           -254.220409
 Sum of electronic and thermal Energies=              -254.208514
 Sum of electronic and thermal Enthalpies=            -254.207570
 Sum of electronic and thermal Free Energies=         -254.262531

                     E (Thermal)             CV                S
                      KCal/Mol        Cal/Mol-Kelvin    Cal/Mol-Kelvin
 Total                   99.580             38.956            115.676
 Electronic               0.000              0.000              0.000
 Translational            0.889              2.981             43.091
 Rotational               0.889              2.981             31.671
 Vibrational             97.802             32.994             40.915
 Vibration     1          0.593              1.986              6.602
 Vibration     2          0.594              1.981              5.249
 Vibration     3          0.594              1.981              5.181
 Vibration     4          0.599              1.964              3.963
 Vibration     5          0.606              1.942              3.276
 Vibration     6          0.612              1.922              2.929
 Vibration     7          0.647              1.810              1.957
 Vibration     8          0.651              1.799              1.898
 Vibration     9          0.690              1.682              1.442
 Vibration    10          0.699              1.656              1.366
 Vibration    11          0.738              1.545              1.102
 Vibration    12          0.773              1.453              0.933
 Vibration    13          0.790              1.408              0.864
 Vibration    14          0.816              1.344              0.773
 Vibration    15          0.848              1.268              0.678
 Vibration    16          0.928              1.092              0.500
 Vibration    17          0.945              1.057              0.471
 Vibration    18          0.965              1.018              0.438

 Normal termination of Gaussian 16 at Wed May 11 21:53:01 2022.
